+ 0.1 0 2 ping 5000 ------- 1 0.0 4.0 -1 0
- 0.1 0 2 ping 5000 ------- 1 0.0 4.0 -1 0
+ 0.1 5 3 ping 6000 ------- 2 5.0 1.0 -1 1
- 0.1 5 3 ping 6000 ------- 2 5.0 1.0 -1 1
+ 0.1 0 2 ping 5000 ------- 1 0.0 4.0 -1 2
+ 0.1 5 3 ping 6000 ------- 2 5.0 1.0 -1 3
+ 0.1 0 2 ping 5000 ------- 1 0.0 4.0 -1 4
+ 0.1 5 3 ping 6000 ------- 2 5.0 1.0 -1 5
+ 0.1 0 2 ping 5000 ------- 1 0.0 4.0 -1 6
+ 0.1 5 3 ping 6000 ------- 2 5.0 1.0 -1 7
+ 0.1 0 2 ping 5000 ------- 1 0.0 4.0 -1 8
+ 0.1 5 3 ping 6000 ------- 2 5.0 1.0 -1 9
+ 0.1 0 2 ping 5000 ------- 1 0.0 4.0 -1 10
d 0.1 0 2 ping 5000 ------- 1 0.0 4.0 -1 10
+ 0.1 5 3 ping 6000 ------- 2 5.0 1.0 -1 11
d 0.1 5 3 ping 6000 ------- 2 5.0 1.0 -1 11
+ 0.1 0 2 ping 5000 ------- 1 0.0 4.0 -1 12
d 0.1 0 2 ping 5000 ------- 1 0.0 4.0 -1 12
+ 0.1 5 3 ping 6000 ------- 2 5.0 1.0 -1 13
d 0.1 5 3 ping 6000 ------- 2 5.0 1.0 -1 13
+ 0.1 0 2 ping 5000 ------- 1 0.0 4.0 -1 14
d 0.1 0 2 ping 5000 ------- 1 0.0 4.0 -1 14
+ 0.1 5 3 ping 6000 ------- 2 5.0 1.0 -1 15
d 0.1 5 3 ping 6000 ------- 2 5.0 1.0 -1 15
+ 0.1 0 2 ping 5000 ------- 1 0.0 4.0 -1 16
d 0.1 0 2 ping 5000 ------- 1 0.0 4.0 -1 16
+ 0.1 5 3 ping 6000 ------- 2 5.0 1.0 -1 17
d 0.1 5 3 ping 6000 ------- 2 5.0 1.0 -1 17
+ 0.1 0 2 ping 5000 ------- 1 0.0 4.0 -1 18
d 0.1 0 2 ping 5000 ------- 1 0.0 4.0 -1 18
+ 0.1 5 3 ping 6000 ------- 2 5.0 1.0 -1 19
d 0.1 5 3 ping 6000 ------- 2 5.0 1.0 -1 19
+ 0.1 0 2 ping 5000 ------- 1 0.0 4.0 -1 20
d 0.1 0 2 ping 5000 ------- 1 0.0 4.0 -1 20
+ 0.1 5 3 ping 6000 ------- 2 5.0 1.0 -1 21
d 0.1 5 3 ping 6000 ------- 2 5.0 1.0 -1 21
+ 0.1 0 2 ping 5000 ------- 1 0.0 4.0 -1 22
d 0.1 0 2 ping 5000 ------- 1 0.0 4.0 -1 22
+ 0.1 5 3 ping 6000 ------- 2 5.0 1.0 -1 23
d 0.1 5 3 ping 6000 ------- 2 5.0 1.0 -1 23
+ 0.1 0 2 ping 5000 ------- 1 0.0 4.0 -1 24
d 0.1 0 2 ping 5000 ------- 1 0.0 4.0 -1 24
+ 0.1 5 3 ping 6000 ------- 2 5.0 1.0 -1 25
d 0.1 5 3 ping 6000 ------- 2 5.0 1.0 -1 25
+ 0.1 0 2 ping 5000 ------- 1 0.0 4.0 -1 26
d 0.1 0 2 ping 5000 ------- 1 0.0 4.0 -1 26
+ 0.1 5 3 ping 6000 ------- 2 5.0 1.0 -1 27
d 0.1 5 3 ping 6000 ------- 2 5.0 1.0 -1 27
+ 0.1 0 2 ping 5000 ------- 1 0.0 4.0 -1 28
d 0.1 0 2 ping 5000 ------- 1 0.0 4.0 -1 28
+ 0.1 5 3 ping 6000 ------- 2 5.0 1.0 -1 29
d 0.1 5 3 ping 6000 ------- 2 5.0 1.0 -1 29
- 0.14 0 2 ping 5000 ------- 1 0.0 4.0 -1 2
- 0.148 5 3 ping 6000 ------- 2 5.0 1.0 -1 3
- 0.18 0 2 ping 5000 ------- 1 0.0 4.0 -1 4
r 0.19 0 2 ping 5000 ------- 1 0.0 4.0 -1 0
+ 0.19 2 3 ping 5000 ------- 1 0.0 4.0 -1 0
- 0.19 2 3 ping 5000 ------- 1 0.0 4.0 -1 0
- 0.196 5 3 ping 6000 ------- 2 5.0 1.0 -1 5
r 0.198 5 3 ping 6000 ------- 2 5.0 1.0 -1 1
+ 0.198 3 2 ping 6000 ------- 2 5.0 1.0 -1 1
- 0.198 3 2 ping 6000 ------- 2 5.0 1.0 -1 1
- 0.22 0 2 ping 5000 ------- 1 0.0 4.0 -1 6
r 0.23 0 2 ping 5000 ------- 1 0.0 4.0 -1 2
+ 0.23 2 3 ping 5000 ------- 1 0.0 4.0 -1 2
- 0.244 5 3 ping 6000 ------- 2 5.0 1.0 -1 7
r 0.246 5 3 ping 6000 ------- 2 5.0 1.0 -1 3
+ 0.246 3 2 ping 6000 ------- 2 5.0 1.0 -1 3
- 0.26 0 2 ping 5000 ------- 1 0.0 4.0 -1 8
r 0.27 0 2 ping 5000 ------- 1 0.0 4.0 -1 4
+ 0.27 2 3 ping 5000 ------- 1 0.0 4.0 -1 4
d 0.27 2 3 ping 5000 ------- 1 0.0 4.0 -1 4
- 0.27 2 3 ping 5000 ------- 1 0.0 4.0 -1 2
- 0.292 5 3 ping 6000 ------- 2 5.0 1.0 -1 9
r 0.294 5 3 ping 6000 ------- 2 5.0 1.0 -1 5
+ 0.294 3 2 ping 6000 ------- 2 5.0 1.0 -1 5
d 0.294 3 2 ping 6000 ------- 2 5.0 1.0 -1 5
- 0.294 3 2 ping 6000 ------- 2 5.0 1.0 -1 3
r 0.31 0 2 ping 5000 ------- 1 0.0 4.0 -1 6
+ 0.31 2 3 ping 5000 ------- 1 0.0 4.0 -1 6
r 0.32 2 3 ping 5000 ------- 1 0.0 4.0 -1 0
+ 0.32 3 4 ping 5000 ------- 1 0.0 4.0 -1 0
- 0.32 3 4 ping 5000 ------- 1 0.0 4.0 -1 0
r 0.342 5 3 ping 6000 ------- 2 5.0 1.0 -1 7
+ 0.342 3 2 ping 6000 ------- 2 5.0 1.0 -1 7
r 0.344 3 2 ping 6000 ------- 2 5.0 1.0 -1 1
+ 0.344 2 1 ping 6000 ------- 2 5.0 1.0 -1 1
- 0.344 2 1 ping 6000 ------- 2 5.0 1.0 -1 1
r 0.35 0 2 ping 5000 ------- 1 0.0 4.0 -1 8
+ 0.35 2 3 ping 5000 ------- 1 0.0 4.0 -1 8
d 0.35 2 3 ping 5000 ------- 1 0.0 4.0 -1 8
- 0.35 2 3 ping 5000 ------- 1 0.0 4.0 -1 6
r 0.39 5 3 ping 6000 ------- 2 5.0 1.0 -1 9
+ 0.39 3 2 ping 6000 ------- 2 5.0 1.0 -1 9
d 0.39 3 2 ping 6000 ------- 2 5.0 1.0 -1 9
- 0.39 3 2 ping 6000 ------- 2 5.0 1.0 -1 7
r 0.4 2 3 ping 5000 ------- 1 0.0 4.0 -1 2
+ 0.4 3 4 ping 5000 ------- 1 0.0 4.0 -1 2
- 0.4 3 4 ping 5000 ------- 1 0.0 4.0 -1 2
r 0.41 3 4 ping 5000 ------- 1 0.0 4.0 -1 0
+ 0.41 4 3 ping 64 ------- 0 4.0 0.0 -1 30
- 0.41 4 3 ping 64 ------- 0 4.0 0.0 -1 30
r 0.44 3 2 ping 6000 ------- 2 5.0 1.0 -1 3
+ 0.44 2 1 ping 6000 ------- 2 5.0 1.0 -1 3
- 0.44 2 1 ping 6000 ------- 2 5.0 1.0 -1 3
r 0.442 2 1 ping 6000 ------- 2 5.0 1.0 -1 1
+ 0.442 1 2 ping 64 ------- 0 1.0 5.0 -1 31
- 0.442 1 2 ping 64 ------- 0 1.0 5.0 -1 31
r 0.460512 4 3 ping 64 ------- 0 4.0 0.0 -1 30
+ 0.460512 3 2 ping 64 ------- 0 4.0 0.0 -1 30
r 0.48 2 3 ping 5000 ------- 1 0.0 4.0 -1 6
+ 0.48 3 4 ping 5000 ------- 1 0.0 4.0 -1 6
- 0.48 3 4 ping 5000 ------- 1 0.0 4.0 -1 6
- 0.486 3 2 ping 64 ------- 0 4.0 0.0 -1 30
r 0.49 3 4 ping 5000 ------- 1 0.0 4.0 -1 2
+ 0.49 4 3 ping 64 ------- 0 4.0 0.0 -1 32
- 0.49 4 3 ping 64 ------- 0 4.0 0.0 -1 32
r 0.492512 1 2 ping 64 ------- 0 1.0 5.0 -1 31
+ 0.492512 2 3 ping 64 ------- 0 1.0 5.0 -1 31
- 0.492512 2 3 ping 64 ------- 0 1.0 5.0 -1 31
r 0.536 3 2 ping 6000 ------- 2 5.0 1.0 -1 7
+ 0.536 2 1 ping 6000 ------- 2 5.0 1.0 -1 7
- 0.536 2 1 ping 6000 ------- 2 5.0 1.0 -1 7
r 0.537024 3 2 ping 64 ------- 0 4.0 0.0 -1 30
+ 0.537024 2 0 ping 64 ------- 0 4.0 0.0 -1 30
- 0.537024 2 0 ping 64 ------- 0 4.0 0.0 -1 30
r 0.538 2 1 ping 6000 ------- 2 5.0 1.0 -1 3
+ 0.538 1 2 ping 64 ------- 0 1.0 5.0 -1 33
- 0.538 1 2 ping 64 ------- 0 1.0 5.0 -1 33
r 0.540512 4 3 ping 64 ------- 0 4.0 0.0 -1 32
+ 0.540512 3 2 ping 64 ------- 0 4.0 0.0 -1 32
- 0.540512 3 2 ping 64 ------- 0 4.0 0.0 -1 32
r 0.543536 2 3 ping 64 ------- 0 1.0 5.0 -1 31
+ 0.543536 3 5 ping 64 ------- 0 1.0 5.0 -1 31
- 0.543536 3 5 ping 64 ------- 0 1.0 5.0 -1 31
r 0.57 3 4 ping 5000 ------- 1 0.0 4.0 -1 6
+ 0.57 4 3 ping 64 ------- 0 4.0 0.0 -1 34
- 0.57 4 3 ping 64 ------- 0 4.0 0.0 -1 34
r 0.587536 2 0 ping 64 ------- 0 4.0 0.0 -1 30
r 0.588512 1 2 ping 64 ------- 0 1.0 5.0 -1 33
+ 0.588512 2 3 ping 64 ------- 0 1.0 5.0 -1 33
- 0.588512 2 3 ping 64 ------- 0 1.0 5.0 -1 33
r 0.591536 3 2 ping 64 ------- 0 4.0 0.0 -1 32
+ 0.591536 2 0 ping 64 ------- 0 4.0 0.0 -1 32
- 0.591536 2 0 ping 64 ------- 0 4.0 0.0 -1 32
r 0.594048 3 5 ping 64 ------- 0 1.0 5.0 -1 31
r 0.620512 4 3 ping 64 ------- 0 4.0 0.0 -1 34
+ 0.620512 3 2 ping 64 ------- 0 4.0 0.0 -1 34
- 0.620512 3 2 ping 64 ------- 0 4.0 0.0 -1 34
r 0.634 2 1 ping 6000 ------- 2 5.0 1.0 -1 7
+ 0.634 1 2 ping 64 ------- 0 1.0 5.0 -1 35
- 0.634 1 2 ping 64 ------- 0 1.0 5.0 -1 35
r 0.639536 2 3 ping 64 ------- 0 1.0 5.0 -1 33
+ 0.639536 3 5 ping 64 ------- 0 1.0 5.0 -1 33
- 0.639536 3 5 ping 64 ------- 0 1.0 5.0 -1 33
r 0.642048 2 0 ping 64 ------- 0 4.0 0.0 -1 32
r 0.671536 3 2 ping 64 ------- 0 4.0 0.0 -1 34
+ 0.671536 2 0 ping 64 ------- 0 4.0 0.0 -1 34
- 0.671536 2 0 ping 64 ------- 0 4.0 0.0 -1 34
r 0.684512 1 2 ping 64 ------- 0 1.0 5.0 -1 35
+ 0.684512 2 3 ping 64 ------- 0 1.0 5.0 -1 35
- 0.684512 2 3 ping 64 ------- 0 1.0 5.0 -1 35
r 0.690048 3 5 ping 64 ------- 0 1.0 5.0 -1 33
r 0.722048 2 0 ping 64 ------- 0 4.0 0.0 -1 34
r 0.735536 2 3 ping 64 ------- 0 1.0 5.0 -1 35
+ 0.735536 3 5 ping 64 ------- 0 1.0 5.0 -1 35
- 0.735536 3 5 ping 64 ------- 0 1.0 5.0 -1 35
r 0.786048 3 5 ping 64 ------- 0 1.0 5.0 -1 35
