+ 0.1 0 2 ping 5000 ------- 1 0.0 4.0 -1 0
- 0.1 0 2 ping 5000 ------- 1 0.0 4.0 -1 0
+ 0.1 5 3 ping 6000 ------- 2 5.0 1.0 -1 1
- 0.1 5 3 ping 6000 ------- 2 5.0 1.0 -1 1
+ 0.1 0 2 ping 5000 ------- 1 0.0 4.0 -1 2
+ 0.1 5 3 ping 6000 ------- 2 5.0 1.0 -1 3
+ 0.1 0 2 ping 5000 ------- 1 0.0 4.0 -1 4
+ 0.1 5 3 ping 6000 ------- 2 5.0 1.0 -1 5
+ 0.1 0 2 ping 5000 ------- 1 0.0 4.0 -1 6
+ 0.1 5 3 ping 6000 ------- 2 5.0 1.0 -1 7
+ 0.1 0 2 ping 5000 ------- 1 0.0 4.0 -1 8
d 0.1 0 2 ping 5000 ------- 1 0.0 4.0 -1 8
+ 0.1 5 3 ping 6000 ------- 2 5.0 1.0 -1 9
+ 0.1 0 2 ping 5000 ------- 1 0.0 4.0 -1 10
d 0.1 0 2 ping 5000 ------- 1 0.0 4.0 -1 10
+ 0.1 5 3 ping 6000 ------- 2 5.0 1.0 -1 11
d 0.1 5 3 ping 6000 ------- 2 5.0 1.0 -1 11
+ 0.1 0 2 ping 5000 ------- 1 0.0 4.0 -1 12
d 0.1 0 2 ping 5000 ------- 1 0.0 4.0 -1 12
+ 0.1 5 3 ping 6000 ------- 2 5.0 1.0 -1 13
d 0.1 5 3 ping 6000 ------- 2 5.0 1.0 -1 13
+ 0.1 0 2 ping 5000 ------- 1 0.0 4.0 -1 14
d 0.1 0 2 ping 5000 ------- 1 0.0 4.0 -1 14
+ 0.1 5 3 ping 6000 ------- 2 5.0 1.0 -1 15
d 0.1 5 3 ping 6000 ------- 2 5.0 1.0 -1 15
+ 0.1 0 2 ping 5000 ------- 1 0.0 4.0 -1 16
d 0.1 0 2 ping 5000 ------- 1 0.0 4.0 -1 16
+ 0.1 5 3 ping 6000 ------- 2 5.0 1.0 -1 17
d 0.1 5 3 ping 6000 ------- 2 5.0 1.0 -1 17
+ 0.1 0 2 ping 5000 ------- 1 0.0 4.0 -1 18
d 0.1 0 2 ping 5000 ------- 1 0.0 4.0 -1 18
+ 0.1 5 3 ping 6000 ------- 2 5.0 1.0 -1 19
d 0.1 5 3 ping 6000 ------- 2 5.0 1.0 -1 19
+ 0.1 0 2 ping 5000 ------- 1 0.0 4.0 -1 20
d 0.1 0 2 ping 5000 ------- 1 0.0 4.0 -1 20
+ 0.1 5 3 ping 6000 ------- 2 5.0 1.0 -1 21
d 0.1 5 3 ping 6000 ------- 2 5.0 1.0 -1 21
+ 0.1 0 2 ping 5000 ------- 1 0.0 4.0 -1 22
d 0.1 0 2 ping 5000 ------- 1 0.0 4.0 -1 22
+ 0.1 5 3 ping 6000 ------- 2 5.0 1.0 -1 23
d 0.1 5 3 ping 6000 ------- 2 5.0 1.0 -1 23
- 0.124 5 3 ping 6000 ------- 2 5.0 1.0 -1 3
- 0.126667 0 2 ping 5000 ------- 1 0.0 4.0 -1 2
- 0.148 5 3 ping 6000 ------- 2 5.0 1.0 -1 5
- 0.153333 0 2 ping 5000 ------- 1 0.0 4.0 -1 4
- 0.172 5 3 ping 6000 ------- 2 5.0 1.0 -1 7
r 0.174 5 3 ping 6000 ------- 2 5.0 1.0 -1 1
+ 0.174 3 2 ping 6000 ------- 2 5.0 1.0 -1 1
- 0.174 3 2 ping 6000 ------- 2 5.0 1.0 -1 1
r 0.176667 0 2 ping 5000 ------- 1 0.0 4.0 -1 0
+ 0.176667 2 3 ping 5000 ------- 1 0.0 4.0 -1 0
- 0.176667 2 3 ping 5000 ------- 1 0.0 4.0 -1 0
- 0.18 0 2 ping 5000 ------- 1 0.0 4.0 -1 6
- 0.196 5 3 ping 6000 ------- 2 5.0 1.0 -1 9
r 0.198 5 3 ping 6000 ------- 2 5.0 1.0 -1 3
+ 0.198 3 2 ping 6000 ------- 2 5.0 1.0 -1 3
r 0.203333 0 2 ping 5000 ------- 1 0.0 4.0 -1 2
+ 0.203333 2 3 ping 5000 ------- 1 0.0 4.0 -1 2
r 0.222 5 3 ping 6000 ------- 2 5.0 1.0 -1 5
+ 0.222 3 2 ping 6000 ------- 2 5.0 1.0 -1 5
d 0.222 3 2 ping 6000 ------- 2 5.0 1.0 -1 5
r 0.23 0 2 ping 5000 ------- 1 0.0 4.0 -1 4
+ 0.23 2 3 ping 5000 ------- 1 0.0 4.0 -1 4
r 0.246 5 3 ping 6000 ------- 2 5.0 1.0 -1 7
+ 0.246 3 2 ping 6000 ------- 2 5.0 1.0 -1 7
d 0.246 3 2 ping 6000 ------- 2 5.0 1.0 -1 7
- 0.256667 2 3 ping 5000 ------- 1 0.0 4.0 -1 2
r 0.256667 0 2 ping 5000 ------- 1 0.0 4.0 -1 6
+ 0.256667 2 3 ping 5000 ------- 1 0.0 4.0 -1 6
- 0.27 3 2 ping 6000 ------- 2 5.0 1.0 -1 3
r 0.27 5 3 ping 6000 ------- 2 5.0 1.0 -1 9
+ 0.27 3 2 ping 6000 ------- 2 5.0 1.0 -1 9
r 0.306667 2 3 ping 5000 ------- 1 0.0 4.0 -1 0
+ 0.306667 3 4 ping 5000 ------- 1 0.0 4.0 -1 0
- 0.306667 3 4 ping 5000 ------- 1 0.0 4.0 -1 0
r 0.32 3 2 ping 6000 ------- 2 5.0 1.0 -1 1
+ 0.32 2 1 ping 6000 ------- 2 5.0 1.0 -1 1
- 0.32 2 1 ping 6000 ------- 2 5.0 1.0 -1 1
- 0.336667 2 3 ping 5000 ------- 1 0.0 4.0 -1 4
- 0.366 3 2 ping 6000 ------- 2 5.0 1.0 -1 9
r 0.386667 2 3 ping 5000 ------- 1 0.0 4.0 -1 2
+ 0.386667 3 4 ping 5000 ------- 1 0.0 4.0 -1 2
- 0.386667 3 4 ping 5000 ------- 1 0.0 4.0 -1 2
r 0.396667 3 4 ping 5000 ------- 1 0.0 4.0 -1 0
+ 0.396667 4 3 ping 64 ------- 0 4.0 0.0 -1 24
- 0.396667 4 3 ping 64 ------- 0 4.0 0.0 -1 24
r 0.416 3 2 ping 6000 ------- 2 5.0 1.0 -1 3
+ 0.416 2 1 ping 6000 ------- 2 5.0 1.0 -1 3
- 0.416 2 1 ping 6000 ------- 2 5.0 1.0 -1 3
- 0.416667 2 3 ping 5000 ------- 1 0.0 4.0 -1 6
r 0.418 2 1 ping 6000 ------- 2 5.0 1.0 -1 1
+ 0.418 1 2 ping 64 ------- 0 1.0 5.0 -1 25
- 0.418 1 2 ping 64 ------- 0 1.0 5.0 -1 25
r 0.447179 4 3 ping 64 ------- 0 4.0 0.0 -1 24
+ 0.447179 3 2 ping 64 ------- 0 4.0 0.0 -1 24
- 0.462 3 2 ping 64 ------- 0 4.0 0.0 -1 24
r 0.466667 2 3 ping 5000 ------- 1 0.0 4.0 -1 4
+ 0.466667 3 4 ping 5000 ------- 1 0.0 4.0 -1 4
- 0.466667 3 4 ping 5000 ------- 1 0.0 4.0 -1 4
r 0.468512 1 2 ping 64 ------- 0 1.0 5.0 -1 25
+ 0.468512 2 3 ping 64 ------- 0 1.0 5.0 -1 25
r 0.476667 3 4 ping 5000 ------- 1 0.0 4.0 -1 2
+ 0.476667 4 3 ping 64 ------- 0 4.0 0.0 -1 26
- 0.476667 4 3 ping 64 ------- 0 4.0 0.0 -1 26
- 0.496667 2 3 ping 64 ------- 0 1.0 5.0 -1 25
r 0.512 3 2 ping 6000 ------- 2 5.0 1.0 -1 9
+ 0.512 2 1 ping 6000 ------- 2 5.0 1.0 -1 9
- 0.512 2 1 ping 6000 ------- 2 5.0 1.0 -1 9
r 0.513024 3 2 ping 64 ------- 0 4.0 0.0 -1 24
+ 0.513024 2 0 ping 64 ------- 0 4.0 0.0 -1 24
- 0.513024 2 0 ping 64 ------- 0 4.0 0.0 -1 24
r 0.514 2 1 ping 6000 ------- 2 5.0 1.0 -1 3
+ 0.514 1 2 ping 64 ------- 0 1.0 5.0 -1 27
- 0.514 1 2 ping 64 ------- 0 1.0 5.0 -1 27
r 0.527179 4 3 ping 64 ------- 0 4.0 0.0 -1 26
+ 0.527179 3 2 ping 64 ------- 0 4.0 0.0 -1 26
- 0.527179 3 2 ping 64 ------- 0 4.0 0.0 -1 26
r 0.546667 2 3 ping 5000 ------- 1 0.0 4.0 -1 6
+ 0.546667 3 4 ping 5000 ------- 1 0.0 4.0 -1 6
- 0.546667 3 4 ping 5000 ------- 1 0.0 4.0 -1 6
r 0.547691 2 3 ping 64 ------- 0 1.0 5.0 -1 25
+ 0.547691 3 5 ping 64 ------- 0 1.0 5.0 -1 25
- 0.547691 3 5 ping 64 ------- 0 1.0 5.0 -1 25
r 0.556667 3 4 ping 5000 ------- 1 0.0 4.0 -1 4
+ 0.556667 4 3 ping 64 ------- 0 4.0 0.0 -1 28
- 0.556667 4 3 ping 64 ------- 0 4.0 0.0 -1 28
r 0.563365 2 0 ping 64 ------- 0 4.0 0.0 -1 24
r 0.564512 1 2 ping 64 ------- 0 1.0 5.0 -1 27
+ 0.564512 2 3 ping 64 ------- 0 1.0 5.0 -1 27
- 0.564512 2 3 ping 64 ------- 0 1.0 5.0 -1 27
r 0.578203 3 2 ping 64 ------- 0 4.0 0.0 -1 26
+ 0.578203 2 0 ping 64 ------- 0 4.0 0.0 -1 26
- 0.578203 2 0 ping 64 ------- 0 4.0 0.0 -1 26
r 0.597947 3 5 ping 64 ------- 0 1.0 5.0 -1 25
r 0.607179 4 3 ping 64 ------- 0 4.0 0.0 -1 28
+ 0.607179 3 2 ping 64 ------- 0 4.0 0.0 -1 28
- 0.607179 3 2 ping 64 ------- 0 4.0 0.0 -1 28
r 0.61 2 1 ping 6000 ------- 2 5.0 1.0 -1 9
+ 0.61 1 2 ping 64 ------- 0 1.0 5.0 -1 29
- 0.61 1 2 ping 64 ------- 0 1.0 5.0 -1 29
r 0.615536 2 3 ping 64 ------- 0 1.0 5.0 -1 27
+ 0.615536 3 5 ping 64 ------- 0 1.0 5.0 -1 27
- 0.615536 3 5 ping 64 ------- 0 1.0 5.0 -1 27
r 0.628544 2 0 ping 64 ------- 0 4.0 0.0 -1 26
r 0.636667 3 4 ping 5000 ------- 1 0.0 4.0 -1 6
+ 0.636667 4 3 ping 64 ------- 0 4.0 0.0 -1 30
- 0.636667 4 3 ping 64 ------- 0 4.0 0.0 -1 30
r 0.658203 3 2 ping 64 ------- 0 4.0 0.0 -1 28
+ 0.658203 2 0 ping 64 ------- 0 4.0 0.0 -1 28
- 0.658203 2 0 ping 64 ------- 0 4.0 0.0 -1 28
r 0.660512 1 2 ping 64 ------- 0 1.0 5.0 -1 29
+ 0.660512 2 3 ping 64 ------- 0 1.0 5.0 -1 29
- 0.660512 2 3 ping 64 ------- 0 1.0 5.0 -1 29
r 0.665792 3 5 ping 64 ------- 0 1.0 5.0 -1 27
r 0.687179 4 3 ping 64 ------- 0 4.0 0.0 -1 30
+ 0.687179 3 2 ping 64 ------- 0 4.0 0.0 -1 30
- 0.687179 3 2 ping 64 ------- 0 4.0 0.0 -1 30
r 0.708544 2 0 ping 64 ------- 0 4.0 0.0 -1 28
r 0.711536 2 3 ping 64 ------- 0 1.0 5.0 -1 29
+ 0.711536 3 5 ping 64 ------- 0 1.0 5.0 -1 29
- 0.711536 3 5 ping 64 ------- 0 1.0 5.0 -1 29
r 0.738203 3 2 ping 64 ------- 0 4.0 0.0 -1 30
+ 0.738203 2 0 ping 64 ------- 0 4.0 0.0 -1 30
- 0.738203 2 0 ping 64 ------- 0 4.0 0.0 -1 30
r 0.761792 3 5 ping 64 ------- 0 1.0 5.0 -1 29
r 0.788544 2 0 ping 64 ------- 0 4.0 0.0 -1 30
