V -t * -v 1.0a5 -a 0
A -t * -n 1 -p 0 -o 0x7fffffff -c 30 -a 1
A -t * -h 1 -m 1073741823 -s 0
c -t * -i 1 -n red
c -t * -i 2 -n blue
n -t * -a 0 -s 0 -S UP -v circle -c blue -i blue
n -t * -a 1 -s 1 -S UP -v circle -c blue -i blue
n -t * -a 2 -s 2 -S UP -v circle -c blue -i blue
l -t * -s 1 -d 0 -S UP -r 3000000 -D 0.01 -c black
l -t * -s 1 -d 2 -S UP -r 2000000 -D 0.01 -c black
+ -t 0.5 -s 0 -d 1 -p tcp -e 40 -c 1 -i 0 -a 1 -x {0.0 1.0 0 ------- null}
- -t 0.5 -s 0 -d 1 -p tcp -e 40 -c 1 -i 0 -a 1 -x {0.0 1.0 0 ------- null}
h -t 0.5 -s 0 -d 1 -p tcp -e 40 -c 1 -i 0 -a 1 -x {0.0 1.0 -1 ------- null}
r -t 0.510106666666667 -s 0 -d 1 -p tcp -e 40 -c 1 -i 0 -a 1 -x {0.0 1.0 0 ------- null}
+ -t 0.510106666666667 -s 1 -d 0 -p ack -e 40 -c 1 -i 1 -a 1 -x {1.0 0.0 0 ------- null}
- -t 0.510106666666667 -s 1 -d 0 -p ack -e 40 -c 1 -i 1 -a 1 -x {1.0 0.0 0 ------- null}
h -t 0.510106666666667 -s 1 -d 0 -p ack -e 40 -c 1 -i 1 -a 1 -x {1.0 0.0 -1 ------- null}
r -t 0.520213333333333 -s 1 -d 0 -p ack -e 40 -c 1 -i 1 -a 1 -x {1.0 0.0 0 ------- null}
+ -t 0.520213333333333 -s 0 -d 1 -p tcp -e 1040 -c 1 -i 2 -a 1 -x {0.0 1.0 1 ------- null}
- -t 0.520213333333333 -s 0 -d 1 -p tcp -e 1040 -c 1 -i 2 -a 1 -x {0.0 1.0 1 ------- null}
h -t 0.520213333333333 -s 0 -d 1 -p tcp -e 1040 -c 1 -i 2 -a 1 -x {0.0 1.0 -1 ------- null}
+ -t 0.520213333333333 -s 0 -d 1 -p tcp -e 1040 -c 1 -i 3 -a 1 -x {0.0 1.0 2 ------- null}
- -t 0.522986666666667 -s 0 -d 1 -p tcp -e 1040 -c 1 -i 3 -a 1 -x {0.0 1.0 2 ------- null}
h -t 0.522986666666667 -s 0 -d 1 -p tcp -e 1040 -c 1 -i 3 -a 1 -x {0.0 1.0 -1 ------- null}
r -t 0.532986666666667 -s 0 -d 1 -p tcp -e 1040 -c 1 -i 2 -a 1 -x {0.0 1.0 1 ------- null}
+ -t 0.532986666666667 -s 1 -d 0 -p ack -e 40 -c 1 -i 4 -a 1 -x {1.0 0.0 1 ------- null}
- -t 0.532986666666667 -s 1 -d 0 -p ack -e 40 -c 1 -i 4 -a 1 -x {1.0 0.0 1 ------- null}
h -t 0.532986666666667 -s 1 -d 0 -p ack -e 40 -c 1 -i 4 -a 1 -x {1.0 0.0 -1 ------- null}
r -t 0.53576 -s 0 -d 1 -p tcp -e 1040 -c 1 -i 3 -a 1 -x {0.0 1.0 2 ------- null}
+ -t 0.53576 -s 1 -d 0 -p ack -e 40 -c 1 -i 5 -a 1 -x {1.0 0.0 2 ------- null}
- -t 0.53576 -s 1 -d 0 -p ack -e 40 -c 1 -i 5 -a 1 -x {1.0 0.0 2 ------- null}
h -t 0.53576 -s 1 -d 0 -p ack -e 40 -c 1 -i 5 -a 1 -x {1.0 0.0 -1 ------- null}
r -t 0.543093333333333 -s 1 -d 0 -p ack -e 40 -c 1 -i 4 -a 1 -x {1.0 0.0 1 ------- null}
+ -t 0.543093333333333 -s 0 -d 1 -p tcp -e 1040 -c 1 -i 6 -a 1 -x {0.0 1.0 3 ------- null}
- -t 0.543093333333333 -s 0 -d 1 -p tcp -e 1040 -c 1 -i 6 -a 1 -x {0.0 1.0 3 ------- null}
h -t 0.543093333333333 -s 0 -d 1 -p tcp -e 1040 -c 1 -i 6 -a 1 -x {0.0 1.0 -1 ------- null}
+ -t 0.543093333333333 -s 0 -d 1 -p tcp -e 1040 -c 1 -i 7 -a 1 -x {0.0 1.0 4 ------- null}
r -t 0.545866666666667 -s 1 -d 0 -p ack -e 40 -c 1 -i 5 -a 1 -x {1.0 0.0 2 ------- null}
+ -t 0.545866666666667 -s 0 -d 1 -p tcp -e 1040 -c 1 -i 8 -a 1 -x {0.0 1.0 5 ------- null}
- -t 0.545866666666667 -s 0 -d 1 -p tcp -e 1040 -c 1 -i 7 -a 1 -x {0.0 1.0 4 ------- null}
h -t 0.545866666666667 -s 0 -d 1 -p tcp -e 1040 -c 1 -i 7 -a 1 -x {0.0 1.0 -1 ------- null}
- -t 0.54864 -s 0 -d 1 -p tcp -e 1040 -c 1 -i 8 -a 1 -x {0.0 1.0 5 ------- null}
h -t 0.54864 -s 0 -d 1 -p tcp -e 1040 -c 1 -i 8 -a 1 -x {0.0 1.0 -1 ------- null}
+ -t 0.55 -s 0 -d 1 -p tcp -e 1040 -c 1 -i 9 -a 1 -x {0.0 1.0 6 ------- null}
- -t 0.551413333333333 -s 0 -d 1 -p tcp -e 1040 -c 1 -i 9 -a 1 -x {0.0 1.0 6 ------- null}
h -t 0.551413333333333 -s 0 -d 1 -p tcp -e 1040 -c 1 -i 9 -a 1 -x {0.0 1.0 -1 ------- null}
r -t 0.555866666666667 -s 0 -d 1 -p tcp -e 1040 -c 1 -i 6 -a 1 -x {0.0 1.0 3 ------- null}
+ -t 0.555866666666667 -s 1 -d 0 -p ack -e 40 -c 1 -i 10 -a 1 -x {1.0 0.0 3 ------- null}
- -t 0.555866666666667 -s 1 -d 0 -p ack -e 40 -c 1 -i 10 -a 1 -x {1.0 0.0 3 ------- null}
h -t 0.555866666666667 -s 1 -d 0 -p ack -e 40 -c 1 -i 10 -a 1 -x {1.0 0.0 -1 ------- null}
r -t 0.55864 -s 0 -d 1 -p tcp -e 1040 -c 1 -i 7 -a 1 -x {0.0 1.0 4 ------- null}
+ -t 0.55864 -s 1 -d 0 -p ack -e 40 -c 1 -i 11 -a 1 -x {1.0 0.0 4 ------- null}
- -t 0.55864 -s 1 -d 0 -p ack -e 40 -c 1 -i 11 -a 1 -x {1.0 0.0 4 ------- null}
h -t 0.55864 -s 1 -d 0 -p ack -e 40 -c 1 -i 11 -a 1 -x {1.0 0.0 -1 ------- null}
r -t 0.561413333333333 -s 0 -d 1 -p tcp -e 1040 -c 1 -i 8 -a 1 -x {0.0 1.0 5 ------- null}
+ -t 0.561413333333333 -s 1 -d 0 -p ack -e 40 -c 1 -i 12 -a 1 -x {1.0 0.0 5 ------- null}
- -t 0.561413333333333 -s 1 -d 0 -p ack -e 40 -c 1 -i 12 -a 1 -x {1.0 0.0 5 ------- null}
h -t 0.561413333333333 -s 1 -d 0 -p ack -e 40 -c 1 -i 12 -a 1 -x {1.0 0.0 -1 ------- null}
r -t 0.564186666666667 -s 0 -d 1 -p tcp -e 1040 -c 1 -i 9 -a 1 -x {0.0 1.0 6 ------- null}
+ -t 0.564186666666667 -s 1 -d 0 -p ack -e 40 -c 1 -i 13 -a 1 -x {1.0 0.0 6 ------- null}
- -t 0.564186666666667 -s 1 -d 0 -p ack -e 40 -c 1 -i 13 -a 1 -x {1.0 0.0 6 ------- null}
h -t 0.564186666666667 -s 1 -d 0 -p ack -e 40 -c 1 -i 13 -a 1 -x {1.0 0.0 -1 ------- null}
r -t 0.565973333333333 -s 1 -d 0 -p ack -e 40 -c 1 -i 10 -a 1 -x {1.0 0.0 3 ------- null}
+ -t 0.565973333333333 -s 0 -d 1 -p tcp -e 1040 -c 1 -i 14 -a 1 -x {0.0 1.0 7 ------- null}
- -t 0.565973333333333 -s 0 -d 1 -p tcp -e 1040 -c 1 -i 14 -a 1 -x {0.0 1.0 7 ------- null}
h -t 0.565973333333333 -s 0 -d 1 -p tcp -e 1040 -c 1 -i 14 -a 1 -x {0.0 1.0 -1 ------- null}
r -t 0.568746666666667 -s 1 -d 0 -p ack -e 40 -c 1 -i 11 -a 1 -x {1.0 0.0 4 ------- null}
+ -t 0.57 -s 0 -d 1 -p tcp -e 1040 -c 1 -i 15 -a 1 -x {0.0 1.0 8 ------- null}
- -t 0.57 -s 0 -d 1 -p tcp -e 1040 -c 1 -i 15 -a 1 -x {0.0 1.0 8 ------- null}
h -t 0.57 -s 0 -d 1 -p tcp -e 1040 -c 1 -i 15 -a 1 -x {0.0 1.0 -1 ------- null}
r -t 0.57152 -s 1 -d 0 -p ack -e 40 -c 1 -i 12 -a 1 -x {1.0 0.0 5 ------- null}
r -t 0.574293333333333 -s 1 -d 0 -p ack -e 40 -c 1 -i 13 -a 1 -x {1.0 0.0 6 ------- null}
r -t 0.578746666666667 -s 0 -d 1 -p tcp -e 1040 -c 1 -i 14 -a 1 -x {0.0 1.0 7 ------- null}
+ -t 0.578746666666667 -s 1 -d 0 -p ack -e 40 -c 1 -i 16 -a 1 -x {1.0 0.0 7 ------- null}
- -t 0.578746666666667 -s 1 -d 0 -p ack -e 40 -c 1 -i 16 -a 1 -x {1.0 0.0 7 ------- null}
h -t 0.578746666666667 -s 1 -d 0 -p ack -e 40 -c 1 -i 16 -a 1 -x {1.0 0.0 -1 ------- null}
+ -t 0.58 -s 0 -d 1 -p tcp -e 1040 -c 1 -i 17 -a 1 -x {0.0 1.0 9 ------- null}
- -t 0.58 -s 0 -d 1 -p tcp -e 1040 -c 1 -i 17 -a 1 -x {0.0 1.0 9 ------- null}
h -t 0.58 -s 0 -d 1 -p tcp -e 1040 -c 1 -i 17 -a 1 -x {0.0 1.0 -1 ------- null}
r -t 0.582773333333333 -s 0 -d 1 -p tcp -e 1040 -c 1 -i 15 -a 1 -x {0.0 1.0 8 ------- null}
+ -t 0.582773333333333 -s 1 -d 0 -p ack -e 40 -c 1 -i 18 -a 1 -x {1.0 0.0 8 ------- null}
- -t 0.582773333333333 -s 1 -d 0 -p ack -e 40 -c 1 -i 18 -a 1 -x {1.0 0.0 8 ------- null}
h -t 0.582773333333333 -s 1 -d 0 -p ack -e 40 -c 1 -i 18 -a 1 -x {1.0 0.0 -1 ------- null}
r -t 0.588853333333333 -s 1 -d 0 -p ack -e 40 -c 1 -i 16 -a 1 -x {1.0 0.0 7 ------- null}
+ -t 0.59 -s 0 -d 1 -p tcp -e 1040 -c 1 -i 19 -a 1 -x {0.0 1.0 10 ------- null}
- -t 0.59 -s 0 -d 1 -p tcp -e 1040 -c 1 -i 19 -a 1 -x {0.0 1.0 10 ------- null}
h -t 0.59 -s 0 -d 1 -p tcp -e 1040 -c 1 -i 19 -a 1 -x {0.0 1.0 -1 ------- null}
r -t 0.592773333333333 -s 0 -d 1 -p tcp -e 1040 -c 1 -i 17 -a 1 -x {0.0 1.0 9 ------- null}
+ -t 0.592773333333333 -s 1 -d 0 -p ack -e 40 -c 1 -i 20 -a 1 -x {1.0 0.0 9 ------- null}
- -t 0.592773333333333 -s 1 -d 0 -p ack -e 40 -c 1 -i 20 -a 1 -x {1.0 0.0 9 ------- null}
h -t 0.592773333333333 -s 1 -d 0 -p ack -e 40 -c 1 -i 20 -a 1 -x {1.0 0.0 -1 ------- null}
r -t 0.59288 -s 1 -d 0 -p ack -e 40 -c 1 -i 18 -a 1 -x {1.0 0.0 8 ------- null}
+ -t 0.6 -s 0 -d 1 -p tcp -e 1040 -c 1 -i 21 -a 1 -x {0.0 1.0 11 ------- null}
- -t 0.6 -s 0 -d 1 -p tcp -e 1040 -c 1 -i 21 -a 1 -x {0.0 1.0 11 ------- null}
h -t 0.6 -s 0 -d 1 -p tcp -e 1040 -c 1 -i 21 -a 1 -x {0.0 1.0 -1 ------- null}
r -t 0.602773333333333 -s 0 -d 1 -p tcp -e 1040 -c 1 -i 19 -a 1 -x {0.0 1.0 10 ------- null}
+ -t 0.602773333333333 -s 1 -d 0 -p ack -e 40 -c 1 -i 22 -a 1 -x {1.0 0.0 10 ------- null}
- -t 0.602773333333333 -s 1 -d 0 -p ack -e 40 -c 1 -i 22 -a 1 -x {1.0 0.0 10 ------- null}
h -t 0.602773333333333 -s 1 -d 0 -p ack -e 40 -c 1 -i 22 -a 1 -x {1.0 0.0 -1 ------- null}
r -t 0.60288 -s 1 -d 0 -p ack -e 40 -c 1 -i 20 -a 1 -x {1.0 0.0 9 ------- null}
+ -t 0.61 -s 0 -d 1 -p tcp -e 1040 -c 1 -i 23 -a 1 -x {0.0 1.0 12 ------- null}
- -t 0.61 -s 0 -d 1 -p tcp -e 1040 -c 1 -i 23 -a 1 -x {0.0 1.0 12 ------- null}
h -t 0.61 -s 0 -d 1 -p tcp -e 1040 -c 1 -i 23 -a 1 -x {0.0 1.0 -1 ------- null}
r -t 0.612773333333333 -s 0 -d 1 -p tcp -e 1040 -c 1 -i 21 -a 1 -x {0.0 1.0 11 ------- null}
+ -t 0.612773333333333 -s 1 -d 0 -p ack -e 40 -c 1 -i 24 -a 1 -x {1.0 0.0 11 ------- null}
- -t 0.612773333333333 -s 1 -d 0 -p ack -e 40 -c 1 -i 24 -a 1 -x {1.0 0.0 11 ------- null}
h -t 0.612773333333333 -s 1 -d 0 -p ack -e 40 -c 1 -i 24 -a 1 -x {1.0 0.0 -1 ------- null}
r -t 0.61288 -s 1 -d 0 -p ack -e 40 -c 1 -i 22 -a 1 -x {1.0 0.0 10 ------- null}
+ -t 0.62 -s 0 -d 1 -p tcp -e 1040 -c 1 -i 25 -a 1 -x {0.0 1.0 13 ------- null}
- -t 0.62 -s 0 -d 1 -p tcp -e 1040 -c 1 -i 25 -a 1 -x {0.0 1.0 13 ------- null}
h -t 0.62 -s 0 -d 1 -p tcp -e 1040 -c 1 -i 25 -a 1 -x {0.0 1.0 -1 ------- null}
r -t 0.622773333333333 -s 0 -d 1 -p tcp -e 1040 -c 1 -i 23 -a 1 -x {0.0 1.0 12 ------- null}
+ -t 0.622773333333333 -s 1 -d 0 -p ack -e 40 -c 1 -i 26 -a 1 -x {1.0 0.0 12 ------- null}
- -t 0.622773333333333 -s 1 -d 0 -p ack -e 40 -c 1 -i 26 -a 1 -x {1.0 0.0 12 ------- null}
h -t 0.622773333333333 -s 1 -d 0 -p ack -e 40 -c 1 -i 26 -a 1 -x {1.0 0.0 -1 ------- null}
r -t 0.62288 -s 1 -d 0 -p ack -e 40 -c 1 -i 24 -a 1 -x {1.0 0.0 11 ------- null}
+ -t 0.63 -s 0 -d 1 -p tcp -e 1040 -c 1 -i 27 -a 1 -x {0.0 1.0 14 ------- null}
- -t 0.63 -s 0 -d 1 -p tcp -e 1040 -c 1 -i 27 -a 1 -x {0.0 1.0 14 ------- null}
h -t 0.63 -s 0 -d 1 -p tcp -e 1040 -c 1 -i 27 -a 1 -x {0.0 1.0 -1 ------- null}
r -t 0.632773333333333 -s 0 -d 1 -p tcp -e 1040 -c 1 -i 25 -a 1 -x {0.0 1.0 13 ------- null}
+ -t 0.632773333333333 -s 1 -d 0 -p ack -e 40 -c 1 -i 28 -a 1 -x {1.0 0.0 13 ------- null}
- -t 0.632773333333333 -s 1 -d 0 -p ack -e 40 -c 1 -i 28 -a 1 -x {1.0 0.0 13 ------- null}
h -t 0.632773333333333 -s 1 -d 0 -p ack -e 40 -c 1 -i 28 -a 1 -x {1.0 0.0 -1 ------- null}
r -t 0.63288 -s 1 -d 0 -p ack -e 40 -c 1 -i 26 -a 1 -x {1.0 0.0 12 ------- null}
+ -t 0.64 -s 0 -d 1 -p tcp -e 1040 -c 1 -i 29 -a 1 -x {0.0 1.0 15 ------- null}
- -t 0.64 -s 0 -d 1 -p tcp -e 1040 -c 1 -i 29 -a 1 -x {0.0 1.0 15 ------- null}
h -t 0.64 -s 0 -d 1 -p tcp -e 1040 -c 1 -i 29 -a 1 -x {0.0 1.0 -1 ------- null}
r -t 0.642773333333333 -s 0 -d 1 -p tcp -e 1040 -c 1 -i 27 -a 1 -x {0.0 1.0 14 ------- null}
+ -t 0.642773333333333 -s 1 -d 0 -p ack -e 40 -c 1 -i 30 -a 1 -x {1.0 0.0 14 ------- null}
- -t 0.642773333333333 -s 1 -d 0 -p ack -e 40 -c 1 -i 30 -a 1 -x {1.0 0.0 14 ------- null}
h -t 0.642773333333333 -s 1 -d 0 -p ack -e 40 -c 1 -i 30 -a 1 -x {1.0 0.0 -1 ------- null}
r -t 0.64288 -s 1 -d 0 -p ack -e 40 -c 1 -i 28 -a 1 -x {1.0 0.0 13 ------- null}
+ -t 0.65 -s 0 -d 1 -p tcp -e 1040 -c 1 -i 31 -a 1 -x {0.0 1.0 16 ------- null}
- -t 0.65 -s 0 -d 1 -p tcp -e 1040 -c 1 -i 31 -a 1 -x {0.0 1.0 16 ------- null}
h -t 0.65 -s 0 -d 1 -p tcp -e 1040 -c 1 -i 31 -a 1 -x {0.0 1.0 -1 ------- null}
r -t 0.652773333333333 -s 0 -d 1 -p tcp -e 1040 -c 1 -i 29 -a 1 -x {0.0 1.0 15 ------- null}
+ -t 0.652773333333333 -s 1 -d 0 -p ack -e 40 -c 1 -i 32 -a 1 -x {1.0 0.0 15 ------- null}
- -t 0.652773333333333 -s 1 -d 0 -p ack -e 40 -c 1 -i 32 -a 1 -x {1.0 0.0 15 ------- null}
h -t 0.652773333333333 -s 1 -d 0 -p ack -e 40 -c 1 -i 32 -a 1 -x {1.0 0.0 -1 ------- null}
r -t 0.65288 -s 1 -d 0 -p ack -e 40 -c 1 -i 30 -a 1 -x {1.0 0.0 14 ------- null}
+ -t 0.66 -s 0 -d 1 -p tcp -e 1040 -c 1 -i 33 -a 1 -x {0.0 1.0 17 ------- null}
- -t 0.66 -s 0 -d 1 -p tcp -e 1040 -c 1 -i 33 -a 1 -x {0.0 1.0 17 ------- null}
h -t 0.66 -s 0 -d 1 -p tcp -e 1040 -c 1 -i 33 -a 1 -x {0.0 1.0 -1 ------- null}
r -t 0.662773333333333 -s 0 -d 1 -p tcp -e 1040 -c 1 -i 31 -a 1 -x {0.0 1.0 16 ------- null}
+ -t 0.662773333333333 -s 1 -d 0 -p ack -e 40 -c 1 -i 34 -a 1 -x {1.0 0.0 16 ------- null}
- -t 0.662773333333333 -s 1 -d 0 -p ack -e 40 -c 1 -i 34 -a 1 -x {1.0 0.0 16 ------- null}
h -t 0.662773333333333 -s 1 -d 0 -p ack -e 40 -c 1 -i 34 -a 1 -x {1.0 0.0 -1 ------- null}
r -t 0.66288 -s 1 -d 0 -p ack -e 40 -c 1 -i 32 -a 1 -x {1.0 0.0 15 ------- null}
+ -t 0.67 -s 0 -d 1 -p tcp -e 1040 -c 1 -i 35 -a 1 -x {0.0 1.0 18 ------- null}
- -t 0.67 -s 0 -d 1 -p tcp -e 1040 -c 1 -i 35 -a 1 -x {0.0 1.0 18 ------- null}
h -t 0.67 -s 0 -d 1 -p tcp -e 1040 -c 1 -i 35 -a 1 -x {0.0 1.0 -1 ------- null}
r -t 0.672773333333333 -s 0 -d 1 -p tcp -e 1040 -c 1 -i 33 -a 1 -x {0.0 1.0 17 ------- null}
+ -t 0.672773333333333 -s 1 -d 0 -p ack -e 40 -c 1 -i 36 -a 1 -x {1.0 0.0 17 ------- null}
- -t 0.672773333333333 -s 1 -d 0 -p ack -e 40 -c 1 -i 36 -a 1 -x {1.0 0.0 17 ------- null}
h -t 0.672773333333333 -s 1 -d 0 -p ack -e 40 -c 1 -i 36 -a 1 -x {1.0 0.0 -1 ------- null}
r -t 0.67288 -s 1 -d 0 -p ack -e 40 -c 1 -i 34 -a 1 -x {1.0 0.0 16 ------- null}
+ -t 0.68 -s 0 -d 1 -p tcp -e 1040 -c 1 -i 37 -a 1 -x {0.0 1.0 19 ------- null}
- -t 0.68 -s 0 -d 1 -p tcp -e 1040 -c 1 -i 37 -a 1 -x {0.0 1.0 19 ------- null}
h -t 0.68 -s 0 -d 1 -p tcp -e 1040 -c 1 -i 37 -a 1 -x {0.0 1.0 -1 ------- null}
r -t 0.682773333333333 -s 0 -d 1 -p tcp -e 1040 -c 1 -i 35 -a 1 -x {0.0 1.0 18 ------- null}
+ -t 0.682773333333333 -s 1 -d 0 -p ack -e 40 -c 1 -i 38 -a 1 -x {1.0 0.0 18 ------- null}
- -t 0.682773333333333 -s 1 -d 0 -p ack -e 40 -c 1 -i 38 -a 1 -x {1.0 0.0 18 ------- null}
h -t 0.682773333333333 -s 1 -d 0 -p ack -e 40 -c 1 -i 38 -a 1 -x {1.0 0.0 -1 ------- null}
r -t 0.68288 -s 1 -d 0 -p ack -e 40 -c 1 -i 36 -a 1 -x {1.0 0.0 17 ------- null}
+ -t 0.69 -s 0 -d 1 -p tcp -e 1040 -c 1 -i 39 -a 1 -x {0.0 1.0 20 ------- null}
- -t 0.69 -s 0 -d 1 -p tcp -e 1040 -c 1 -i 39 -a 1 -x {0.0 1.0 20 ------- null}
h -t 0.69 -s 0 -d 1 -p tcp -e 1040 -c 1 -i 39 -a 1 -x {0.0 1.0 -1 ------- null}
r -t 0.692773333333333 -s 0 -d 1 -p tcp -e 1040 -c 1 -i 37 -a 1 -x {0.0 1.0 19 ------- null}
+ -t 0.692773333333333 -s 1 -d 0 -p ack -e 40 -c 1 -i 40 -a 1 -x {1.0 0.0 19 ------- null}
- -t 0.692773333333333 -s 1 -d 0 -p ack -e 40 -c 1 -i 40 -a 1 -x {1.0 0.0 19 ------- null}
h -t 0.692773333333333 -s 1 -d 0 -p ack -e 40 -c 1 -i 40 -a 1 -x {1.0 0.0 -1 ------- null}
r -t 0.69288 -s 1 -d 0 -p ack -e 40 -c 1 -i 38 -a 1 -x {1.0 0.0 18 ------- null}
+ -t 0.7 -s 0 -d 1 -p tcp -e 1040 -c 1 -i 41 -a 1 -x {0.0 1.0 21 ------- null}
- -t 0.7 -s 0 -d 1 -p tcp -e 1040 -c 1 -i 41 -a 1 -x {0.0 1.0 21 ------- null}
h -t 0.7 -s 0 -d 1 -p tcp -e 1040 -c 1 -i 41 -a 1 -x {0.0 1.0 -1 ------- null}
r -t 0.702773333333333 -s 0 -d 1 -p tcp -e 1040 -c 1 -i 39 -a 1 -x {0.0 1.0 20 ------- null}
+ -t 0.702773333333333 -s 1 -d 0 -p ack -e 40 -c 1 -i 42 -a 1 -x {1.0 0.0 20 ------- null}
- -t 0.702773333333333 -s 1 -d 0 -p ack -e 40 -c 1 -i 42 -a 1 -x {1.0 0.0 20 ------- null}
h -t 0.702773333333333 -s 1 -d 0 -p ack -e 40 -c 1 -i 42 -a 1 -x {1.0 0.0 -1 ------- null}
r -t 0.70288 -s 1 -d 0 -p ack -e 40 -c 1 -i 40 -a 1 -x {1.0 0.0 19 ------- null}
+ -t 0.71 -s 0 -d 1 -p tcp -e 1040 -c 1 -i 43 -a 1 -x {0.0 1.0 22 ------- null}
- -t 0.71 -s 0 -d 1 -p tcp -e 1040 -c 1 -i 43 -a 1 -x {0.0 1.0 22 ------- null}
h -t 0.71 -s 0 -d 1 -p tcp -e 1040 -c 1 -i 43 -a 1 -x {0.0 1.0 -1 ------- null}
r -t 0.712773333333333 -s 0 -d 1 -p tcp -e 1040 -c 1 -i 41 -a 1 -x {0.0 1.0 21 ------- null}
+ -t 0.712773333333333 -s 1 -d 0 -p ack -e 40 -c 1 -i 44 -a 1 -x {1.0 0.0 21 ------- null}
- -t 0.712773333333333 -s 1 -d 0 -p ack -e 40 -c 1 -i 44 -a 1 -x {1.0 0.0 21 ------- null}
h -t 0.712773333333333 -s 1 -d 0 -p ack -e 40 -c 1 -i 44 -a 1 -x {1.0 0.0 -1 ------- null}
r -t 0.71288 -s 1 -d 0 -p ack -e 40 -c 1 -i 42 -a 1 -x {1.0 0.0 20 ------- null}
+ -t 0.72 -s 0 -d 1 -p tcp -e 1040 -c 1 -i 45 -a 1 -x {0.0 1.0 23 ------- null}
- -t 0.72 -s 0 -d 1 -p tcp -e 1040 -c 1 -i 45 -a 1 -x {0.0 1.0 23 ------- null}
h -t 0.72 -s 0 -d 1 -p tcp -e 1040 -c 1 -i 45 -a 1 -x {0.0 1.0 -1 ------- null}
r -t 0.722773333333333 -s 0 -d 1 -p tcp -e 1040 -c 1 -i 43 -a 1 -x {0.0 1.0 22 ------- null}
+ -t 0.722773333333333 -s 1 -d 0 -p ack -e 40 -c 1 -i 46 -a 1 -x {1.0 0.0 22 ------- null}
- -t 0.722773333333333 -s 1 -d 0 -p ack -e 40 -c 1 -i 46 -a 1 -x {1.0 0.0 22 ------- null}
h -t 0.722773333333333 -s 1 -d 0 -p ack -e 40 -c 1 -i 46 -a 1 -x {1.0 0.0 -1 ------- null}
r -t 0.72288 -s 1 -d 0 -p ack -e 40 -c 1 -i 44 -a 1 -x {1.0 0.0 21 ------- null}
+ -t 0.73 -s 0 -d 1 -p tcp -e 1040 -c 1 -i 47 -a 1 -x {0.0 1.0 24 ------- null}
- -t 0.73 -s 0 -d 1 -p tcp -e 1040 -c 1 -i 47 -a 1 -x {0.0 1.0 24 ------- null}
h -t 0.73 -s 0 -d 1 -p tcp -e 1040 -c 1 -i 47 -a 1 -x {0.0 1.0 -1 ------- null}
r -t 0.732773333333333 -s 0 -d 1 -p tcp -e 1040 -c 1 -i 45 -a 1 -x {0.0 1.0 23 ------- null}
+ -t 0.732773333333333 -s 1 -d 0 -p ack -e 40 -c 1 -i 48 -a 1 -x {1.0 0.0 23 ------- null}
- -t 0.732773333333333 -s 1 -d 0 -p ack -e 40 -c 1 -i 48 -a 1 -x {1.0 0.0 23 ------- null}
h -t 0.732773333333333 -s 1 -d 0 -p ack -e 40 -c 1 -i 48 -a 1 -x {1.0 0.0 -1 ------- null}
r -t 0.73288 -s 1 -d 0 -p ack -e 40 -c 1 -i 46 -a 1 -x {1.0 0.0 22 ------- null}
+ -t 0.74 -s 0 -d 1 -p tcp -e 1040 -c 1 -i 49 -a 1 -x {0.0 1.0 25 ------- null}
- -t 0.74 -s 0 -d 1 -p tcp -e 1040 -c 1 -i 49 -a 1 -x {0.0 1.0 25 ------- null}
h -t 0.74 -s 0 -d 1 -p tcp -e 1040 -c 1 -i 49 -a 1 -x {0.0 1.0 -1 ------- null}
r -t 0.742773333333334 -s 0 -d 1 -p tcp -e 1040 -c 1 -i 47 -a 1 -x {0.0 1.0 24 ------- null}
+ -t 0.742773333333334 -s 1 -d 0 -p ack -e 40 -c 1 -i 50 -a 1 -x {1.0 0.0 24 ------- null}
- -t 0.742773333333334 -s 1 -d 0 -p ack -e 40 -c 1 -i 50 -a 1 -x {1.0 0.0 24 ------- null}
h -t 0.742773333333334 -s 1 -d 0 -p ack -e 40 -c 1 -i 50 -a 1 -x {1.0 0.0 -1 ------- null}
r -t 0.74288 -s 1 -d 0 -p ack -e 40 -c 1 -i 48 -a 1 -x {1.0 0.0 23 ------- null}
+ -t 0.75 -s 0 -d 1 -p tcp -e 1040 -c 1 -i 51 -a 1 -x {0.0 1.0 26 ------- null}
- -t 0.75 -s 0 -d 1 -p tcp -e 1040 -c 1 -i 51 -a 1 -x {0.0 1.0 26 ------- null}
h -t 0.75 -s 0 -d 1 -p tcp -e 1040 -c 1 -i 51 -a 1 -x {0.0 1.0 -1 ------- null}
r -t 0.752773333333334 -s 0 -d 1 -p tcp -e 1040 -c 1 -i 49 -a 1 -x {0.0 1.0 25 ------- null}
+ -t 0.752773333333334 -s 1 -d 0 -p ack -e 40 -c 1 -i 52 -a 1 -x {1.0 0.0 25 ------- null}
- -t 0.752773333333334 -s 1 -d 0 -p ack -e 40 -c 1 -i 52 -a 1 -x {1.0 0.0 25 ------- null}
h -t 0.752773333333334 -s 1 -d 0 -p ack -e 40 -c 1 -i 52 -a 1 -x {1.0 0.0 -1 ------- null}
r -t 0.75288 -s 1 -d 0 -p ack -e 40 -c 1 -i 50 -a 1 -x {1.0 0.0 24 ------- null}
+ -t 0.76 -s 0 -d 1 -p tcp -e 1040 -c 1 -i 53 -a 1 -x {0.0 1.0 27 ------- null}
- -t 0.76 -s 0 -d 1 -p tcp -e 1040 -c 1 -i 53 -a 1 -x {0.0 1.0 27 ------- null}
h -t 0.76 -s 0 -d 1 -p tcp -e 1040 -c 1 -i 53 -a 1 -x {0.0 1.0 -1 ------- null}
r -t 0.762773333333334 -s 0 -d 1 -p tcp -e 1040 -c 1 -i 51 -a 1 -x {0.0 1.0 26 ------- null}
+ -t 0.762773333333334 -s 1 -d 0 -p ack -e 40 -c 1 -i 54 -a 1 -x {1.0 0.0 26 ------- null}
- -t 0.762773333333334 -s 1 -d 0 -p ack -e 40 -c 1 -i 54 -a 1 -x {1.0 0.0 26 ------- null}
h -t 0.762773333333334 -s 1 -d 0 -p ack -e 40 -c 1 -i 54 -a 1 -x {1.0 0.0 -1 ------- null}
r -t 0.76288 -s 1 -d 0 -p ack -e 40 -c 1 -i 52 -a 1 -x {1.0 0.0 25 ------- null}
+ -t 0.77 -s 0 -d 1 -p tcp -e 1040 -c 1 -i 55 -a 1 -x {0.0 1.0 28 ------- null}
- -t 0.77 -s 0 -d 1 -p tcp -e 1040 -c 1 -i 55 -a 1 -x {0.0 1.0 28 ------- null}
h -t 0.77 -s 0 -d 1 -p tcp -e 1040 -c 1 -i 55 -a 1 -x {0.0 1.0 -1 ------- null}
r -t 0.772773333333334 -s 0 -d 1 -p tcp -e 1040 -c 1 -i 53 -a 1 -x {0.0 1.0 27 ------- null}
+ -t 0.772773333333334 -s 1 -d 0 -p ack -e 40 -c 1 -i 56 -a 1 -x {1.0 0.0 27 ------- null}
- -t 0.772773333333334 -s 1 -d 0 -p ack -e 40 -c 1 -i 56 -a 1 -x {1.0 0.0 27 ------- null}
h -t 0.772773333333334 -s 1 -d 0 -p ack -e 40 -c 1 -i 56 -a 1 -x {1.0 0.0 -1 ------- null}
r -t 0.77288 -s 1 -d 0 -p ack -e 40 -c 1 -i 54 -a 1 -x {1.0 0.0 26 ------- null}
+ -t 0.78 -s 0 -d 1 -p tcp -e 1040 -c 1 -i 57 -a 1 -x {0.0 1.0 29 ------- null}
- -t 0.78 -s 0 -d 1 -p tcp -e 1040 -c 1 -i 57 -a 1 -x {0.0 1.0 29 ------- null}
h -t 0.78 -s 0 -d 1 -p tcp -e 1040 -c 1 -i 57 -a 1 -x {0.0 1.0 -1 ------- null}
r -t 0.782773333333334 -s 0 -d 1 -p tcp -e 1040 -c 1 -i 55 -a 1 -x {0.0 1.0 28 ------- null}
+ -t 0.782773333333334 -s 1 -d 0 -p ack -e 40 -c 1 -i 58 -a 1 -x {1.0 0.0 28 ------- null}
- -t 0.782773333333334 -s 1 -d 0 -p ack -e 40 -c 1 -i 58 -a 1 -x {1.0 0.0 28 ------- null}
h -t 0.782773333333334 -s 1 -d 0 -p ack -e 40 -c 1 -i 58 -a 1 -x {1.0 0.0 -1 ------- null}
r -t 0.78288 -s 1 -d 0 -p ack -e 40 -c 1 -i 56 -a 1 -x {1.0 0.0 27 ------- null}
+ -t 0.79 -s 0 -d 1 -p tcp -e 1040 -c 1 -i 59 -a 1 -x {0.0 1.0 30 ------- null}
- -t 0.79 -s 0 -d 1 -p tcp -e 1040 -c 1 -i 59 -a 1 -x {0.0 1.0 30 ------- null}
h -t 0.79 -s 0 -d 1 -p tcp -e 1040 -c 1 -i 59 -a 1 -x {0.0 1.0 -1 ------- null}
r -t 0.792773333333334 -s 0 -d 1 -p tcp -e 1040 -c 1 -i 57 -a 1 -x {0.0 1.0 29 ------- null}
+ -t 0.792773333333334 -s 1 -d 0 -p ack -e 40 -c 1 -i 60 -a 1 -x {1.0 0.0 29 ------- null}
- -t 0.792773333333334 -s 1 -d 0 -p ack -e 40 -c 1 -i 60 -a 1 -x {1.0 0.0 29 ------- null}
h -t 0.792773333333334 -s 1 -d 0 -p ack -e 40 -c 1 -i 60 -a 1 -x {1.0 0.0 -1 ------- null}
r -t 0.79288 -s 1 -d 0 -p ack -e 40 -c 1 -i 58 -a 1 -x {1.0 0.0 28 ------- null}
+ -t 0.8 -s 0 -d 1 -p tcp -e 1040 -c 1 -i 61 -a 1 -x {0.0 1.0 31 ------- null}
- -t 0.8 -s 0 -d 1 -p tcp -e 1040 -c 1 -i 61 -a 1 -x {0.0 1.0 31 ------- null}
h -t 0.8 -s 0 -d 1 -p tcp -e 1040 -c 1 -i 61 -a 1 -x {0.0 1.0 -1 ------- null}
r -t 0.802773333333334 -s 0 -d 1 -p tcp -e 1040 -c 1 -i 59 -a 1 -x {0.0 1.0 30 ------- null}
+ -t 0.802773333333334 -s 1 -d 0 -p ack -e 40 -c 1 -i 62 -a 1 -x {1.0 0.0 30 ------- null}
- -t 0.802773333333334 -s 1 -d 0 -p ack -e 40 -c 1 -i 62 -a 1 -x {1.0 0.0 30 ------- null}
h -t 0.802773333333334 -s 1 -d 0 -p ack -e 40 -c 1 -i 62 -a 1 -x {1.0 0.0 -1 ------- null}
r -t 0.80288 -s 1 -d 0 -p ack -e 40 -c 1 -i 60 -a 1 -x {1.0 0.0 29 ------- null}
+ -t 0.81 -s 0 -d 1 -p tcp -e 1040 -c 1 -i 63 -a 1 -x {0.0 1.0 32 ------- null}
- -t 0.81 -s 0 -d 1 -p tcp -e 1040 -c 1 -i 63 -a 1 -x {0.0 1.0 32 ------- null}
h -t 0.81 -s 0 -d 1 -p tcp -e 1040 -c 1 -i 63 -a 1 -x {0.0 1.0 -1 ------- null}
r -t 0.812773333333334 -s 0 -d 1 -p tcp -e 1040 -c 1 -i 61 -a 1 -x {0.0 1.0 31 ------- null}
+ -t 0.812773333333334 -s 1 -d 0 -p ack -e 40 -c 1 -i 64 -a 1 -x {1.0 0.0 31 ------- null}
- -t 0.812773333333334 -s 1 -d 0 -p ack -e 40 -c 1 -i 64 -a 1 -x {1.0 0.0 31 ------- null}
h -t 0.812773333333334 -s 1 -d 0 -p ack -e 40 -c 1 -i 64 -a 1 -x {1.0 0.0 -1 ------- null}
r -t 0.81288 -s 1 -d 0 -p ack -e 40 -c 1 -i 62 -a 1 -x {1.0 0.0 30 ------- null}
+ -t 0.82 -s 0 -d 1 -p tcp -e 1040 -c 1 -i 65 -a 1 -x {0.0 1.0 33 ------- null}
- -t 0.82 -s 0 -d 1 -p tcp -e 1040 -c 1 -i 65 -a 1 -x {0.0 1.0 33 ------- null}
h -t 0.82 -s 0 -d 1 -p tcp -e 1040 -c 1 -i 65 -a 1 -x {0.0 1.0 -1 ------- null}
r -t 0.822773333333334 -s 0 -d 1 -p tcp -e 1040 -c 1 -i 63 -a 1 -x {0.0 1.0 32 ------- null}
+ -t 0.822773333333334 -s 1 -d 0 -p ack -e 40 -c 1 -i 66 -a 1 -x {1.0 0.0 32 ------- null}
- -t 0.822773333333334 -s 1 -d 0 -p ack -e 40 -c 1 -i 66 -a 1 -x {1.0 0.0 32 ------- null}
h -t 0.822773333333334 -s 1 -d 0 -p ack -e 40 -c 1 -i 66 -a 1 -x {1.0 0.0 -1 ------- null}
r -t 0.82288 -s 1 -d 0 -p ack -e 40 -c 1 -i 64 -a 1 -x {1.0 0.0 31 ------- null}
+ -t 0.83 -s 0 -d 1 -p tcp -e 1040 -c 1 -i 67 -a 1 -x {0.0 1.0 34 ------- null}
- -t 0.83 -s 0 -d 1 -p tcp -e 1040 -c 1 -i 67 -a 1 -x {0.0 1.0 34 ------- null}
h -t 0.83 -s 0 -d 1 -p tcp -e 1040 -c 1 -i 67 -a 1 -x {0.0 1.0 -1 ------- null}
r -t 0.832773333333334 -s 0 -d 1 -p tcp -e 1040 -c 1 -i 65 -a 1 -x {0.0 1.0 33 ------- null}
+ -t 0.832773333333334 -s 1 -d 0 -p ack -e 40 -c 1 -i 68 -a 1 -x {1.0 0.0 33 ------- null}
- -t 0.832773333333334 -s 1 -d 0 -p ack -e 40 -c 1 -i 68 -a 1 -x {1.0 0.0 33 ------- null}
h -t 0.832773333333334 -s 1 -d 0 -p ack -e 40 -c 1 -i 68 -a 1 -x {1.0 0.0 -1 ------- null}
r -t 0.83288 -s 1 -d 0 -p ack -e 40 -c 1 -i 66 -a 1 -x {1.0 0.0 32 ------- null}
+ -t 0.84 -s 0 -d 1 -p tcp -e 1040 -c 1 -i 69 -a 1 -x {0.0 1.0 35 ------- null}
- -t 0.84 -s 0 -d 1 -p tcp -e 1040 -c 1 -i 69 -a 1 -x {0.0 1.0 35 ------- null}
h -t 0.84 -s 0 -d 1 -p tcp -e 1040 -c 1 -i 69 -a 1 -x {0.0 1.0 -1 ------- null}
r -t 0.842773333333334 -s 0 -d 1 -p tcp -e 1040 -c 1 -i 67 -a 1 -x {0.0 1.0 34 ------- null}
+ -t 0.842773333333334 -s 1 -d 0 -p ack -e 40 -c 1 -i 70 -a 1 -x {1.0 0.0 34 ------- null}
- -t 0.842773333333334 -s 1 -d 0 -p ack -e 40 -c 1 -i 70 -a 1 -x {1.0 0.0 34 ------- null}
h -t 0.842773333333334 -s 1 -d 0 -p ack -e 40 -c 1 -i 70 -a 1 -x {1.0 0.0 -1 ------- null}
r -t 0.84288 -s 1 -d 0 -p ack -e 40 -c 1 -i 68 -a 1 -x {1.0 0.0 33 ------- null}
+ -t 0.85 -s 0 -d 1 -p tcp -e 1040 -c 1 -i 71 -a 1 -x {0.0 1.0 36 ------- null}
- -t 0.85 -s 0 -d 1 -p tcp -e 1040 -c 1 -i 71 -a 1 -x {0.0 1.0 36 ------- null}
h -t 0.85 -s 0 -d 1 -p tcp -e 1040 -c 1 -i 71 -a 1 -x {0.0 1.0 -1 ------- null}
r -t 0.852773333333334 -s 0 -d 1 -p tcp -e 1040 -c 1 -i 69 -a 1 -x {0.0 1.0 35 ------- null}
+ -t 0.852773333333334 -s 1 -d 0 -p ack -e 40 -c 1 -i 72 -a 1 -x {1.0 0.0 35 ------- null}
- -t 0.852773333333334 -s 1 -d 0 -p ack -e 40 -c 1 -i 72 -a 1 -x {1.0 0.0 35 ------- null}
h -t 0.852773333333334 -s 1 -d 0 -p ack -e 40 -c 1 -i 72 -a 1 -x {1.0 0.0 -1 ------- null}
r -t 0.85288 -s 1 -d 0 -p ack -e 40 -c 1 -i 70 -a 1 -x {1.0 0.0 34 ------- null}
+ -t 0.86 -s 0 -d 1 -p tcp -e 1040 -c 1 -i 73 -a 1 -x {0.0 1.0 37 ------- null}
- -t 0.86 -s 0 -d 1 -p tcp -e 1040 -c 1 -i 73 -a 1 -x {0.0 1.0 37 ------- null}
h -t 0.86 -s 0 -d 1 -p tcp -e 1040 -c 1 -i 73 -a 1 -x {0.0 1.0 -1 ------- null}
r -t 0.862773333333334 -s 0 -d 1 -p tcp -e 1040 -c 1 -i 71 -a 1 -x {0.0 1.0 36 ------- null}
+ -t 0.862773333333334 -s 1 -d 0 -p ack -e 40 -c 1 -i 74 -a 1 -x {1.0 0.0 36 ------- null}
- -t 0.862773333333334 -s 1 -d 0 -p ack -e 40 -c 1 -i 74 -a 1 -x {1.0 0.0 36 ------- null}
h -t 0.862773333333334 -s 1 -d 0 -p ack -e 40 -c 1 -i 74 -a 1 -x {1.0 0.0 -1 ------- null}
r -t 0.86288 -s 1 -d 0 -p ack -e 40 -c 1 -i 72 -a 1 -x {1.0 0.0 35 ------- null}
+ -t 0.87 -s 0 -d 1 -p tcp -e 1040 -c 1 -i 75 -a 1 -x {0.0 1.0 38 ------- null}
- -t 0.87 -s 0 -d 1 -p tcp -e 1040 -c 1 -i 75 -a 1 -x {0.0 1.0 38 ------- null}
h -t 0.87 -s 0 -d 1 -p tcp -e 1040 -c 1 -i 75 -a 1 -x {0.0 1.0 -1 ------- null}
r -t 0.872773333333334 -s 0 -d 1 -p tcp -e 1040 -c 1 -i 73 -a 1 -x {0.0 1.0 37 ------- null}
+ -t 0.872773333333334 -s 1 -d 0 -p ack -e 40 -c 1 -i 76 -a 1 -x {1.0 0.0 37 ------- null}
- -t 0.872773333333334 -s 1 -d 0 -p ack -e 40 -c 1 -i 76 -a 1 -x {1.0 0.0 37 ------- null}
h -t 0.872773333333334 -s 1 -d 0 -p ack -e 40 -c 1 -i 76 -a 1 -x {1.0 0.0 -1 ------- null}
r -t 0.87288 -s 1 -d 0 -p ack -e 40 -c 1 -i 74 -a 1 -x {1.0 0.0 36 ------- null}
+ -t 0.88 -s 0 -d 1 -p tcp -e 1040 -c 1 -i 77 -a 1 -x {0.0 1.0 39 ------- null}
- -t 0.88 -s 0 -d 1 -p tcp -e 1040 -c 1 -i 77 -a 1 -x {0.0 1.0 39 ------- null}
h -t 0.88 -s 0 -d 1 -p tcp -e 1040 -c 1 -i 77 -a 1 -x {0.0 1.0 -1 ------- null}
r -t 0.882773333333334 -s 0 -d 1 -p tcp -e 1040 -c 1 -i 75 -a 1 -x {0.0 1.0 38 ------- null}
+ -t 0.882773333333334 -s 1 -d 0 -p ack -e 40 -c 1 -i 78 -a 1 -x {1.0 0.0 38 ------- null}
- -t 0.882773333333334 -s 1 -d 0 -p ack -e 40 -c 1 -i 78 -a 1 -x {1.0 0.0 38 ------- null}
h -t 0.882773333333334 -s 1 -d 0 -p ack -e 40 -c 1 -i 78 -a 1 -x {1.0 0.0 -1 ------- null}
r -t 0.88288 -s 1 -d 0 -p ack -e 40 -c 1 -i 76 -a 1 -x {1.0 0.0 37 ------- null}
+ -t 0.89 -s 0 -d 1 -p tcp -e 1040 -c 1 -i 79 -a 1 -x {0.0 1.0 40 ------- null}
- -t 0.89 -s 0 -d 1 -p tcp -e 1040 -c 1 -i 79 -a 1 -x {0.0 1.0 40 ------- null}
h -t 0.89 -s 0 -d 1 -p tcp -e 1040 -c 1 -i 79 -a 1 -x {0.0 1.0 -1 ------- null}
r -t 0.892773333333334 -s 0 -d 1 -p tcp -e 1040 -c 1 -i 77 -a 1 -x {0.0 1.0 39 ------- null}
+ -t 0.892773333333334 -s 1 -d 0 -p ack -e 40 -c 1 -i 80 -a 1 -x {1.0 0.0 39 ------- null}
- -t 0.892773333333334 -s 1 -d 0 -p ack -e 40 -c 1 -i 80 -a 1 -x {1.0 0.0 39 ------- null}
h -t 0.892773333333334 -s 1 -d 0 -p ack -e 40 -c 1 -i 80 -a 1 -x {1.0 0.0 -1 ------- null}
r -t 0.89288 -s 1 -d 0 -p ack -e 40 -c 1 -i 78 -a 1 -x {1.0 0.0 38 ------- null}
+ -t 0.9 -s 0 -d 1 -p tcp -e 1040 -c 1 -i 81 -a 1 -x {0.0 1.0 41 ------- null}
- -t 0.9 -s 0 -d 1 -p tcp -e 1040 -c 1 -i 81 -a 1 -x {0.0 1.0 41 ------- null}
h -t 0.9 -s 0 -d 1 -p tcp -e 1040 -c 1 -i 81 -a 1 -x {0.0 1.0 -1 ------- null}
r -t 0.902773333333334 -s 0 -d 1 -p tcp -e 1040 -c 1 -i 79 -a 1 -x {0.0 1.0 40 ------- null}
+ -t 0.902773333333334 -s 1 -d 0 -p ack -e 40 -c 1 -i 82 -a 1 -x {1.0 0.0 40 ------- null}
- -t 0.902773333333334 -s 1 -d 0 -p ack -e 40 -c 1 -i 82 -a 1 -x {1.0 0.0 40 ------- null}
h -t 0.902773333333334 -s 1 -d 0 -p ack -e 40 -c 1 -i 82 -a 1 -x {1.0 0.0 -1 ------- null}
r -t 0.90288 -s 1 -d 0 -p ack -e 40 -c 1 -i 80 -a 1 -x {1.0 0.0 39 ------- null}
+ -t 0.91 -s 0 -d 1 -p tcp -e 1040 -c 1 -i 83 -a 1 -x {0.0 1.0 42 ------- null}
- -t 0.91 -s 0 -d 1 -p tcp -e 1040 -c 1 -i 83 -a 1 -x {0.0 1.0 42 ------- null}
h -t 0.91 -s 0 -d 1 -p tcp -e 1040 -c 1 -i 83 -a 1 -x {0.0 1.0 -1 ------- null}
r -t 0.912773333333334 -s 0 -d 1 -p tcp -e 1040 -c 1 -i 81 -a 1 -x {0.0 1.0 41 ------- null}
+ -t 0.912773333333334 -s 1 -d 0 -p ack -e 40 -c 1 -i 84 -a 1 -x {1.0 0.0 41 ------- null}
- -t 0.912773333333334 -s 1 -d 0 -p ack -e 40 -c 1 -i 84 -a 1 -x {1.0 0.0 41 ------- null}
h -t 0.912773333333334 -s 1 -d 0 -p ack -e 40 -c 1 -i 84 -a 1 -x {1.0 0.0 -1 ------- null}
r -t 0.91288 -s 1 -d 0 -p ack -e 40 -c 1 -i 82 -a 1 -x {1.0 0.0 40 ------- null}
+ -t 0.92 -s 0 -d 1 -p tcp -e 1040 -c 1 -i 85 -a 1 -x {0.0 1.0 43 ------- null}
- -t 0.92 -s 0 -d 1 -p tcp -e 1040 -c 1 -i 85 -a 1 -x {0.0 1.0 43 ------- null}
h -t 0.92 -s 0 -d 1 -p tcp -e 1040 -c 1 -i 85 -a 1 -x {0.0 1.0 -1 ------- null}
r -t 0.922773333333334 -s 0 -d 1 -p tcp -e 1040 -c 1 -i 83 -a 1 -x {0.0 1.0 42 ------- null}
+ -t 0.922773333333334 -s 1 -d 0 -p ack -e 40 -c 1 -i 86 -a 1 -x {1.0 0.0 42 ------- null}