+ 0.5 0 1 tcp 40 ------- 1 0.0 1.0 0 0
- 0.5 0 1 tcp 40 ------- 1 0.0 1.0 0 0
r 0.510107 0 1 tcp 40 ------- 1 0.0 1.0 0 0
+ 0.510107 1 0 ack 40 ------- 1 1.0 0.0 0 1
- 0.510107 1 0 ack 40 ------- 1 1.0 0.0 0 1
r 0.520213 1 0 ack 40 ------- 1 1.0 0.0 0 1
+ 0.520213 0 1 tcp 1040 ------- 1 0.0 1.0 1 2
- 0.520213 0 1 tcp 1040 ------- 1 0.0 1.0 1 2
+ 0.520213 0 1 tcp 1040 ------- 1 0.0 1.0 2 3
- 0.522987 0 1 tcp 1040 ------- 1 0.0 1.0 2 3
r 0.532987 0 1 tcp 1040 ------- 1 0.0 1.0 1 2
+ 0.532987 1 0 ack 40 ------- 1 1.0 0.0 1 4
- 0.532987 1 0 ack 40 ------- 1 1.0 0.0 1 4
r 0.53576 0 1 tcp 1040 ------- 1 0.0 1.0 2 3
+ 0.53576 1 0 ack 40 ------- 1 1.0 0.0 2 5
- 0.53576 1 0 ack 40 ------- 1 1.0 0.0 2 5
r 0.543093 1 0 ack 40 ------- 1 1.0 0.0 1 4
+ 0.543093 0 1 tcp 1040 ------- 1 0.0 1.0 3 6
- 0.543093 0 1 tcp 1040 ------- 1 0.0 1.0 3 6
+ 0.543093 0 1 tcp 1040 ------- 1 0.0 1.0 4 7
r 0.545867 1 0 ack 40 ------- 1 1.0 0.0 2 5
+ 0.545867 0 1 tcp 1040 ------- 1 0.0 1.0 5 8
- 0.545867 0 1 tcp 1040 ------- 1 0.0 1.0 4 7
- 0.54864 0 1 tcp 1040 ------- 1 0.0 1.0 5 8
+ 0.55 0 1 tcp 1040 ------- 1 0.0 1.0 6 9
- 0.551413 0 1 tcp 1040 ------- 1 0.0 1.0 6 9
r 0.555867 0 1 tcp 1040 ------- 1 0.0 1.0 3 6
+ 0.555867 1 0 ack 40 ------- 1 1.0 0.0 3 10
- 0.555867 1 0 ack 40 ------- 1 1.0 0.0 3 10
r 0.55864 0 1 tcp 1040 ------- 1 0.0 1.0 4 7
+ 0.55864 1 0 ack 40 ------- 1 1.0 0.0 4 11
- 0.55864 1 0 ack 40 ------- 1 1.0 0.0 4 11
r 0.561413 0 1 tcp 1040 ------- 1 0.0 1.0 5 8
+ 0.561413 1 0 ack 40 ------- 1 1.0 0.0 5 12
- 0.561413 1 0 ack 40 ------- 1 1.0 0.0 5 12
r 0.564187 0 1 tcp 1040 ------- 1 0.0 1.0 6 9
+ 0.564187 1 0 ack 40 ------- 1 1.0 0.0 6 13
- 0.564187 1 0 ack 40 ------- 1 1.0 0.0 6 13
r 0.565973 1 0 ack 40 ------- 1 1.0 0.0 3 10
+ 0.565973 0 1 tcp 1040 ------- 1 0.0 1.0 7 14
- 0.565973 0 1 tcp 1040 ------- 1 0.0 1.0 7 14
r 0.568747 1 0 ack 40 ------- 1 1.0 0.0 4 11
+ 0.57 0 1 tcp 1040 ------- 1 0.0 1.0 8 15
- 0.57 0 1 tcp 1040 ------- 1 0.0 1.0 8 15
r 0.57152 1 0 ack 40 ------- 1 1.0 0.0 5 12
r 0.574293 1 0 ack 40 ------- 1 1.0 0.0 6 13
r 0.578747 0 1 tcp 1040 ------- 1 0.0 1.0 7 14
+ 0.578747 1 0 ack 40 ------- 1 1.0 0.0 7 16
- 0.578747 1 0 ack 40 ------- 1 1.0 0.0 7 16
+ 0.58 0 1 tcp 1040 ------- 1 0.0 1.0 9 17
- 0.58 0 1 tcp 1040 ------- 1 0.0 1.0 9 17
r 0.582773 0 1 tcp 1040 ------- 1 0.0 1.0 8 15
+ 0.582773 1 0 ack 40 ------- 1 1.0 0.0 8 18
- 0.582773 1 0 ack 40 ------- 1 1.0 0.0 8 18
r 0.588853 1 0 ack 40 ------- 1 1.0 0.0 7 16
+ 0.59 0 1 tcp 1040 ------- 1 0.0 1.0 10 19
- 0.59 0 1 tcp 1040 ------- 1 0.0 1.0 10 19
r 0.592773 0 1 tcp 1040 ------- 1 0.0 1.0 9 17
+ 0.592773 1 0 ack 40 ------- 1 1.0 0.0 9 20
- 0.592773 1 0 ack 40 ------- 1 1.0 0.0 9 20
r 0.59288 1 0 ack 40 ------- 1 1.0 0.0 8 18
+ 0.6 0 1 tcp 1040 ------- 1 0.0 1.0 11 21
- 0.6 0 1 tcp 1040 ------- 1 0.0 1.0 11 21
r 0.602773 0 1 tcp 1040 ------- 1 0.0 1.0 10 19
+ 0.602773 1 0 ack 40 ------- 1 1.0 0.0 10 22
- 0.602773 1 0 ack 40 ------- 1 1.0 0.0 10 22
r 0.60288 1 0 ack 40 ------- 1 1.0 0.0 9 20
+ 0.61 0 1 tcp 1040 ------- 1 0.0 1.0 12 23
- 0.61 0 1 tcp 1040 ------- 1 0.0 1.0 12 23
r 0.612773 0 1 tcp 1040 ------- 1 0.0 1.0 11 21
+ 0.612773 1 0 ack 40 ------- 1 1.0 0.0 11 24
- 0.612773 1 0 ack 40 ------- 1 1.0 0.0 11 24
r 0.61288 1 0 ack 40 ------- 1 1.0 0.0 10 22
+ 0.62 0 1 tcp 1040 ------- 1 0.0 1.0 13 25
- 0.62 0 1 tcp 1040 ------- 1 0.0 1.0 13 25
r 0.622773 0 1 tcp 1040 ------- 1 0.0 1.0 12 23
+ 0.622773 1 0 ack 40 ------- 1 1.0 0.0 12 26
- 0.622773 1 0 ack 40 ------- 1 1.0 0.0 12 26
r 0.62288 1 0 ack 40 ------- 1 1.0 0.0 11 24
+ 0.63 0 1 tcp 1040 ------- 1 0.0 1.0 14 27
- 0.63 0 1 tcp 1040 ------- 1 0.0 1.0 14 27
r 0.632773 0 1 tcp 1040 ------- 1 0.0 1.0 13 25
+ 0.632773 1 0 ack 40 ------- 1 1.0 0.0 13 28
- 0.632773 1 0 ack 40 ------- 1 1.0 0.0 13 28
r 0.63288 1 0 ack 40 ------- 1 1.0 0.0 12 26
+ 0.64 0 1 tcp 1040 ------- 1 0.0 1.0 15 29
- 0.64 0 1 tcp 1040 ------- 1 0.0 1.0 15 29
r 0.642773 0 1 tcp 1040 ------- 1 0.0 1.0 14 27
+ 0.642773 1 0 ack 40 ------- 1 1.0 0.0 14 30
- 0.642773 1 0 ack 40 ------- 1 1.0 0.0 14 30
r 0.64288 1 0 ack 40 ------- 1 1.0 0.0 13 28
+ 0.65 0 1 tcp 1040 ------- 1 0.0 1.0 16 31
- 0.65 0 1 tcp 1040 ------- 1 0.0 1.0 16 31
r 0.652773 0 1 tcp 1040 ------- 1 0.0 1.0 15 29
+ 0.652773 1 0 ack 40 ------- 1 1.0 0.0 15 32
- 0.652773 1 0 ack 40 ------- 1 1.0 0.0 15 32
r 0.65288 1 0 ack 40 ------- 1 1.0 0.0 14 30
+ 0.66 0 1 tcp 1040 ------- 1 0.0 1.0 17 33
- 0.66 0 1 tcp 1040 ------- 1 0.0 1.0 17 33
r 0.662773 0 1 tcp 1040 ------- 1 0.0 1.0 16 31
+ 0.662773 1 0 ack 40 ------- 1 1.0 0.0 16 34
- 0.662773 1 0 ack 40 ------- 1 1.0 0.0 16 34
r 0.66288 1 0 ack 40 ------- 1 1.0 0.0 15 32
+ 0.67 0 1 tcp 1040 ------- 1 0.0 1.0 18 35
- 0.67 0 1 tcp 1040 ------- 1 0.0 1.0 18 35
r 0.672773 0 1 tcp 1040 ------- 1 0.0 1.0 17 33
+ 0.672773 1 0 ack 40 ------- 1 1.0 0.0 17 36
- 0.672773 1 0 ack 40 ------- 1 1.0 0.0 17 36
r 0.67288 1 0 ack 40 ------- 1 1.0 0.0 16 34
+ 0.68 0 1 tcp 1040 ------- 1 0.0 1.0 19 37
- 0.68 0 1 tcp 1040 ------- 1 0.0 1.0 19 37
r 0.682773 0 1 tcp 1040 ------- 1 0.0 1.0 18 35
+ 0.682773 1 0 ack 40 ------- 1 1.0 0.0 18 38
- 0.682773 1 0 ack 40 ------- 1 1.0 0.0 18 38
r 0.68288 1 0 ack 40 ------- 1 1.0 0.0 17 36
+ 0.69 0 1 tcp 1040 ------- 1 0.0 1.0 20 39
- 0.69 0 1 tcp 1040 ------- 1 0.0 1.0 20 39
r 0.692773 0 1 tcp 1040 ------- 1 0.0 1.0 19 37
+ 0.692773 1 0 ack 40 ------- 1 1.0 0.0 19 40
- 0.692773 1 0 ack 40 ------- 1 1.0 0.0 19 40
r 0.69288 1 0 ack 40 ------- 1 1.0 0.0 18 38
+ 0.7 0 1 tcp 1040 ------- 1 0.0 1.0 21 41
- 0.7 0 1 tcp 1040 ------- 1 0.0 1.0 21 41
r 0.702773 0 1 tcp 1040 ------- 1 0.0 1.0 20 39
+ 0.702773 1 0 ack 40 ------- 1 1.0 0.0 20 42
- 0.702773 1 0 ack 40 ------- 1 1.0 0.0 20 42
r 0.70288 1 0 ack 40 ------- 1 1.0 0.0 19 40
+ 0.71 0 1 tcp 1040 ------- 1 0.0 1.0 22 43
- 0.71 0 1 tcp 1040 ------- 1 0.0 1.0 22 43
r 0.712773 0 1 tcp 1040 ------- 1 0.0 1.0 21 41
+ 0.712773 1 0 ack 40 ------- 1 1.0 0.0 21 44
- 0.712773 1 0 ack 40 ------- 1 1.0 0.0 21 44
r 0.71288 1 0 ack 40 ------- 1 1.0 0.0 20 42
+ 0.72 0 1 tcp 1040 ------- 1 0.0 1.0 23 45
- 0.72 0 1 tcp 1040 ------- 1 0.0 1.0 23 45
r 0.722773 0 1 tcp 1040 ------- 1 0.0 1.0 22 43
+ 0.722773 1 0 ack 40 ------- 1 1.0 0.0 22 46
- 0.722773 1 0 ack 40 ------- 1 1.0 0.0 22 46
r 0.72288 1 0 ack 40 ------- 1 1.0 0.0 21 44
+ 0.73 0 1 tcp 1040 ------- 1 0.0 1.0 24 47
- 0.73 0 1 tcp 1040 ------- 1 0.0 1.0 24 47
r 0.732773 0 1 tcp 1040 ------- 1 0.0 1.0 23 45
+ 0.732773 1 0 ack 40 ------- 1 1.0 0.0 23 48
- 0.732773 1 0 ack 40 ------- 1 1.0 0.0 23 48
r 0.73288 1 0 ack 40 ------- 1 1.0 0.0 22 46
+ 0.74 0 1 tcp 1040 ------- 1 0.0 1.0 25 49
- 0.74 0 1 tcp 1040 ------- 1 0.0 1.0 25 49
r 0.742773 0 1 tcp 1040 ------- 1 0.0 1.0 24 47
+ 0.742773 1 0 ack 40 ------- 1 1.0 0.0 24 50
- 0.742773 1 0 ack 40 ------- 1 1.0 0.0 24 50
r 0.74288 1 0 ack 40 ------- 1 1.0 0.0 23 48
+ 0.75 0 1 tcp 1040 ------- 1 0.0 1.0 26 51
- 0.75 0 1 tcp 1040 ------- 1 0.0 1.0 26 51
r 0.752773 0 1 tcp 1040 ------- 1 0.0 1.0 25 49
+ 0.752773 1 0 ack 40 ------- 1 1.0 0.0 25 52
- 0.752773 1 0 ack 40 ------- 1 1.0 0.0 25 52
r 0.75288 1 0 ack 40 ------- 1 1.0 0.0 24 50
+ 0.76 0 1 tcp 1040 ------- 1 0.0 1.0 27 53
- 0.76 0 1 tcp 1040 ------- 1 0.0 1.0 27 53
r 0.762773 0 1 tcp 1040 ------- 1 0.0 1.0 26 51
+ 0.762773 1 0 ack 40 ------- 1 1.0 0.0 26 54
- 0.762773 1 0 ack 40 ------- 1 1.0 0.0 26 54
r 0.76288 1 0 ack 40 ------- 1 1.0 0.0 25 52
+ 0.77 0 1 tcp 1040 ------- 1 0.0 1.0 28 55
- 0.77 0 1 tcp 1040 ------- 1 0.0 1.0 28 55
r 0.772773 0 1 tcp 1040 ------- 1 0.0 1.0 27 53
+ 0.772773 1 0 ack 40 ------- 1 1.0 0.0 27 56
- 0.772773 1 0 ack 40 ------- 1 1.0 0.0 27 56
r 0.77288 1 0 ack 40 ------- 1 1.0 0.0 26 54
+ 0.78 0 1 tcp 1040 ------- 1 0.0 1.0 29 57
- 0.78 0 1 tcp 1040 ------- 1 0.0 1.0 29 57
r 0.782773 0 1 tcp 1040 ------- 1 0.0 1.0 28 55
+ 0.782773 1 0 ack 40 ------- 1 1.0 0.0 28 58
- 0.782773 1 0 ack 40 ------- 1 1.0 0.0 28 58
r 0.78288 1 0 ack 40 ------- 1 1.0 0.0 27 56
+ 0.79 0 1 tcp 1040 ------- 1 0.0 1.0 30 59
- 0.79 0 1 tcp 1040 ------- 1 0.0 1.0 30 59
r 0.792773 0 1 tcp 1040 ------- 1 0.0 1.0 29 57
+ 0.792773 1 0 ack 40 ------- 1 1.0 0.0 29 60
- 0.792773 1 0 ack 40 ------- 1 1.0 0.0 29 60
r 0.79288 1 0 ack 40 ------- 1 1.0 0.0 28 58
+ 0.8 0 1 tcp 1040 ------- 1 0.0 1.0 31 61
- 0.8 0 1 tcp 1040 ------- 1 0.0 1.0 31 61
r 0.802773 0 1 tcp 1040 ------- 1 0.0 1.0 30 59
+ 0.802773 1 0 ack 40 ------- 1 1.0 0.0 30 62
- 0.802773 1 0 ack 40 ------- 1 1.0 0.0 30 62
r 0.80288 1 0 ack 40 ------- 1 1.0 0.0 29 60
+ 0.81 0 1 tcp 1040 ------- 1 0.0 1.0 32 63
- 0.81 0 1 tcp 1040 ------- 1 0.0 1.0 32 63
r 0.812773 0 1 tcp 1040 ------- 1 0.0 1.0 31 61
+ 0.812773 1 0 ack 40 ------- 1 1.0 0.0 31 64
- 0.812773 1 0 ack 40 ------- 1 1.0 0.0 31 64
r 0.81288 1 0 ack 40 ------- 1 1.0 0.0 30 62
+ 0.82 0 1 tcp 1040 ------- 1 0.0 1.0 33 65
- 0.82 0 1 tcp 1040 ------- 1 0.0 1.0 33 65
r 0.822773 0 1 tcp 1040 ------- 1 0.0 1.0 32 63
+ 0.822773 1 0 ack 40 ------- 1 1.0 0.0 32 66
- 0.822773 1 0 ack 40 ------- 1 1.0 0.0 32 66
r 0.82288 1 0 ack 40 ------- 1 1.0 0.0 31 64
+ 0.83 0 1 tcp 1040 ------- 1 0.0 1.0 34 67
- 0.83 0 1 tcp 1040 ------- 1 0.0 1.0 34 67
r 0.832773 0 1 tcp 1040 ------- 1 0.0 1.0 33 65
+ 0.832773 1 0 ack 40 ------- 1 1.0 0.0 33 68
- 0.832773 1 0 ack 40 ------- 1 1.0 0.0 33 68
r 0.83288 1 0 ack 40 ------- 1 1.0 0.0 32 66
+ 0.84 0 1 tcp 1040 ------- 1 0.0 1.0 35 69
- 0.84 0 1 tcp 1040 ------- 1 0.0 1.0 35 69
r 0.842773 0 1 tcp 1040 ------- 1 0.0 1.0 34 67
+ 0.842773 1 0 ack 40 ------- 1 1.0 0.0 34 70
- 0.842773 1 0 ack 40 ------- 1 1.0 0.0 34 70
r 0.84288 1 0 ack 40 ------- 1 1.0 0.0 33 68
+ 0.85 0 1 tcp 1040 ------- 1 0.0 1.0 36 71
- 0.85 0 1 tcp 1040 ------- 1 0.0 1.0 36 71
r 0.852773 0 1 tcp 1040 ------- 1 0.0 1.0 35 69
+ 0.852773 1 0 ack 40 ------- 1 1.0 0.0 35 72
- 0.852773 1 0 ack 40 ------- 1 1.0 0.0 35 72
r 0.85288 1 0 ack 40 ------- 1 1.0 0.0 34 70
+ 0.86 0 1 tcp 1040 ------- 1 0.0 1.0 37 73
- 0.86 0 1 tcp 1040 ------- 1 0.0 1.0 37 73
r 0.862773 0 1 tcp 1040 ------- 1 0.0 1.0 36 71
+ 0.862773 1 0 ack 40 ------- 1 1.0 0.0 36 74
- 0.862773 1 0 ack 40 ------- 1 1.0 0.0 36 74
r 0.86288 1 0 ack 40 ------- 1 1.0 0.0 35 72
+ 0.87 0 1 tcp 1040 ------- 1 0.0 1.0 38 75
- 0.87 0 1 tcp 1040 ------- 1 0.0 1.0 38 75
r 0.872773 0 1 tcp 1040 ------- 1 0.0 1.0 37 73
+ 0.872773 1 0 ack 40 ------- 1 1.0 0.0 37 76
- 0.872773 1 0 ack 40 ------- 1 1.0 0.0 37 76
r 0.87288 1 0 ack 40 ------- 1 1.0 0.0 36 74
+ 0.88 0 1 tcp 1040 ------- 1 0.0 1.0 39 77
- 0.88 0 1 tcp 1040 ------- 1 0.0 1.0 39 77
r 0.882773 0 1 tcp 1040 ------- 1 0.0 1.0 38 75
+ 0.882773 1 0 ack 40 ------- 1 1.0 0.0 38 78
- 0.882773 1 0 ack 40 ------- 1 1.0 0.0 38 78
r 0.88288 1 0 ack 40 ------- 1 1.0 0.0 37 76
+ 0.89 0 1 tcp 1040 ------- 1 0.0 1.0 40 79
- 0.89 0 1 tcp 1040 ------- 1 0.0 1.0 40 79
r 0.892773 0 1 tcp 1040 ------- 1 0.0 1.0 39 77
+ 0.892773 1 0 ack 40 ------- 1 1.0 0.0 39 80
- 0.892773 1 0 ack 40 ------- 1 1.0 0.0 39 80
r 0.89288 1 0 ack 40 ------- 1 1.0 0.0 38 78
+ 0.9 0 1 tcp 1040 ------- 1 0.0 1.0 41 81
- 0.9 0 1 tcp 1040 ------- 1 0.0 1.0 41 81
r 0.902773 0 1 tcp 1040 ------- 1 0.0 1.0 40 79
+ 0.902773 1 0 ack 40 ------- 1 1.0 0.0 40 82
- 0.902773 1 0 ack 40 ------- 1 1.0 0.0 40 82
r 0.90288 1 0 ack 40 ------- 1 1.0 0.0 39 80
+ 0.91 0 1 tcp 1040 ------- 1 0.0 1.0 42 83
- 0.91 0 1 tcp 1040 ------- 1 0.0 1.0 42 83
r 0.912773 0 1 tcp 1040 ------- 1 0.0 1.0 41 81
+ 0.912773 1 0 ack 40 ------- 1 1.0 0.0 41 84
- 0.912773 1 0 ack 40 ------- 1 1.0 0.0 41 84
r 0.91288 1 0 ack 40 ------- 1 1.0 0.0 40 82
+ 0.92 0 1 tcp 1040 ------- 1 0.0 1.0 43 85
- 0.92 0 1 tcp 1040 ------- 1 0.0 1.0 43 85
r 0.922773 0 1 tcp 1040 ------- 1 0.0 1.0 42 83
+ 0.922773 1 0 ack 40 ------- 1 1.0 0.0 42 86
- 0.922773 1 0 ack 40 ------- 1 1.0 0.0 42 86
r 0.92288 1 0 ack 40 ------- 1 1.0 0.0 41 84
+ 0.93 0 1 tcp 1040 ------- 1 0.0 1.0 44 87
- 0.93 0 1 tcp 1040 ------- 1 0.0 1.0 44 87
r 0.932773 0 1 tcp 1040 ------- 1 0.0 1.0 43 85
+ 0.932773 1 0 ack 40 ------- 1 1.0 0.0 43 88
- 0.932773 1 0 ack 40 ------- 1 1.0 0.0 43 88
r 0.93288 1 0 ack 40 ------- 1 1.0 0.0 42 86
+ 0.94 0 1 tcp 1040 ------- 1 0.0 1.0 45 89
- 0.94 0 1 tcp 1040 ------- 1 0.0 1.0 45 89
r 0.942773 0 1 tcp 1040 ------- 1 0.0 1.0 44 87
+ 0.942773 1 0 ack 40 ------- 1 1.0 0.0 44 90
- 0.942773 1 0 ack 40 ------- 1 1.0 0.0 44 90
r 0.94288 1 0 ack 40 ------- 1 1.0 0.0 43 88
+ 0.95 0 1 tcp 1040 ------- 1 0.0 1.0 46 91
- 0.95 0 1 tcp 1040 ------- 1 0.0 1.0 46 91
r 0.952773 0 1 tcp 1040 ------- 1 0.0 1.0 45 89
+ 0.952773 1 0 ack 40 ------- 1 1.0 0.0 45 92
- 0.952773 1 0 ack 40 ------- 1 1.0 0.0 45 92
r 0.95288 1 0 ack 40 ------- 1 1.0 0.0 44 90
+ 0.96 0 1 tcp 1040 ------- 1 0.0 1.0 47 93
- 0.96 0 1 tcp 1040 ------- 1 0.0 1.0 47 93
r 0.962773 0 1 tcp 1040 ------- 1 0.0 1.0 46 91
+ 0.962773 1 0 ack 40 ------- 1 1.0 0.0 46 94
- 0.962773 1 0 ack 40 ------- 1 1.0 0.0 46 94
r 0.96288 1 0 ack 40 ------- 1 1.0 0.0 45 92
+ 0.97 0 1 tcp 1040 ------- 1 0.0 1.0 48 95
- 0.97 0 1 tcp 1040 ------- 1 0.0 1.0 48 95
r 0.972773 0 1 tcp 1040 ------- 1 0.0 1.0 47 93
+ 0.972773 1 0 ack 40 ------- 1 1.0 0.0 47 96
- 0.972773 1 0 ack 40 ------- 1 1.0 0.0 47 96
r 0.97288 1 0 ack 40 ------- 1 1.0 0.0 46 94
+ 0.98 0 1 tcp 1040 ------- 1 0.0 1.0 49 97
- 0.98 0 1 tcp 1040 ------- 1 0.0 1.0 49 97
r 0.982773 0 1 tcp 1040 ------- 1 0.0 1.0 48 95
+ 0.982773 1 0 ack 40 ------- 1 1.0 0.0 48 98
- 0.982773 1 0 ack 40 ------- 1 1.0 0.0 48 98
r 0.98288 1 0 ack 40 ------- 1 1.0 0.0 47 96
+ 0.99 0 1 tcp 1040 ------- 1 0.0 1.0 50 99
- 0.99 0 1 tcp 1040 ------- 1 0.0 1.0 50 99
r 0.992773 0 1 tcp 1040 ------- 1 0.0 1.0 49 97
+ 0.992773 1 0 ack 40 ------- 1 1.0 0.0 49 100
- 0.992773 1 0 ack 40 ------- 1 1.0 0.0 49 100
r 0.99288 1 0 ack 40 ------- 1 1.0 0.0 48 98
+ 1 1 2 tcp 40 ------- 2 1.1 2.0 0 101
- 1 1 2 tcp 40 ------- 2 1.1 2.0 0 101
+ 1 0 1 tcp 1040 ------- 1 0.0 1.0 51 102
- 1 0 1 tcp 1040 ------- 1 0.0 1.0 51 102
r 1.002773 0 1 tcp 1040 ------- 1 0.0 1.0 50 99
+ 1.002773 1 0 ack 40 ------- 1 1.0 0.0 50 103
- 1.002773 1 0 ack 40 ------- 1 1.0 0.0 50 103
r 1.00288 1 0 ack 40 ------- 1 1.0 0.0 49 100
+ 1.01 0 1 tcp 1040 ------- 1 0.0 1.0 52 104
- 1.01 0 1 tcp 1040 ------- 1 0.0 1.0 52 104
r 1.01016 1 2 tcp 40 ------- 2 1.1 2.0 0 101
+ 1.01016 2 1 ack 40 ------- 2 2.0 1.1 0 105
- 1.01016 2 1 ack 40 ------- 2 2.0 1.1 0 105
r 1.012773 0 1 tcp 1040 ------- 1 0.0 1.0 51 102
+ 1.012773 1 0 ack 40 ------- 1 1.0 0.0 51 106
- 1.012773 1 0 ack 40 ------- 1 1.0 0.0 51 106
r 1.01288 1 0 ack 40 ------- 1 1.0 0.0 50 103
+ 1.02 0 1 tcp 1040 ------- 1 0.0 1.0 53 107
- 1.02 0 1 tcp 1040 ------- 1 0.0 1.0 53 107
r 1.02032 2 1 ack 40 ------- 2 2.0 1.1 0 105
+ 1.02032 1 2 tcp 1040 ------- 2 1.1 2.0 1 108
- 1.02032 1 2 tcp 1040 ------- 2 1.1 2.0 1 108
+ 1.02032 1 2 tcp 1040 ------- 2 1.1 2.0 2 109
r 1.022773 0 1 tcp 1040 ------- 1 0.0 1.0 52 104
+ 1.022773 1 0 ack 40 ------- 1 1.0 0.0 52 110
- 1.022773 1 0 ack 40 ------- 1 1.0 0.0 52 110
r 1.02288 1 0 ack 40 ------- 1 1.0 0.0 51 106
- 1.02448 1 2 tcp 1040 ------- 2 1.1 2.0 2 109
+ 1.03 0 1 tcp 1040 ------- 1 0.0 1.0 54 111
- 1.03 0 1 tcp 1040 ------- 1 0.0 1.0 54 111
r 1.032773 0 1 tcp 1040 ------- 1 0.0 1.0 53 107
+ 1.032773 1 0 ack 40 ------- 1 1.0 0.0 53 112
- 1.032773 1 0 ack 40 ------- 1 1.0 0.0 53 112
r 1.03288 1 0 ack 40 ------- 1 1.0 0.0 52 110
r 1.03448 1 2 tcp 1040 ------- 2 1.1 2.0 1 108
+ 1.03448 2 1 ack 40 ------- 2 2.0 1.1 1 113
- 1.03448 2 1 ack 40 ------- 2 2.0 1.1 1 113
r 1.03864 1 2 tcp 1040 ------- 2 1.1 2.0 2 109
+ 1.03864 2 1 ack 40 ------- 2 2.0 1.1 2 114
- 1.03864 2 1 ack 40 ------- 2 2.0 1.1 2 114
+ 1.04 0 1 tcp 1040 ------- 1 0.0 1.0 55 115
- 1.04 0 1 tcp 1040 ------- 1 0.0 1.0 55 115
r 1.042773 0 1 tcp 1040 ------- 1 0.0 1.0 54 111
+ 1.042773 1 0 ack 40 ------- 1 1.0 0.0 54 116
- 1.042773 1 0 ack 40 ------- 1 1.0 0.0 54 116
r 1.04288 1 0 ack 40 ------- 1 1.0 0.0 53 112
r 1.04464 2 1 ack 40 ------- 2 2.0 1.1 1 113
+ 1.04464 1 2 tcp 1040 ------- 2 1.1 2.0 3 117
- 1.04464 1 2 tcp 1040 ------- 2 1.1 2.0 3 117
+ 1.04464 1 2 tcp 1040 ------- 2 1.1 2.0 4 118
r 1.0488 2 1 ack 40 ------- 2 2.0 1.1 2 114
+ 1.0488 1 2 tcp 1040 ------- 2 1.1 2.0 5 119
- 1.0488 1 2 tcp 1040 ------- 2 1.1 2.0 4 118
+ 1.05 1 2 tcp 1040 ------- 2 1.1 2.0 6 120
+ 1.05 0 1 tcp 1040 ------- 1 0.0 1.0 56 121
- 1.05 0 1 tcp 1040 ------- 1 0.0 1.0 56 121
r 1.052773 0 1 tcp 1040 ------- 1 0.0 1.0 55 115
+ 1.052773 1 0 ack 40 ------- 1 1.0 0.0 55 122
- 1.052773 1 0 ack 40 ------- 1 1.0 0.0 55 122
r 1.05288 1 0 ack 40 ------- 1 1.0 0.0 54 116
- 1.05296 1 2 tcp 1040 ------- 2 1.1 2.0 5 119
- 1.05712 1 2 tcp 1040 ------- 2 1.1 2.0 6 120
r 1.0588 1 2 tcp 1040 ------- 2 1.1 2.0 3 117
+ 1.0588 2 1 ack 40 ------- 2 2.0 1.1 3 123
- 1.0588 2 1 ack 40 ------- 2 2.0 1.1 3 123
+ 1.06 0 1 tcp 1040 ------- 1 0.0 1.0 57 124
- 1.06 0 1 tcp 1040 ------- 1 0.0 1.0 57 124
r 1.062773 0 1 tcp 1040 ------- 1 0.0 1.0 56 121
+ 1.062773 1 0 ack 40 ------- 1 1.0 0.0 56 125
- 1.062773 1 0 ack 40 ------- 1 1.0 0.0 56 125
r 1.06288 1 0 ack 40 ------- 1 1.0 0.0 55 122
r 1.06296 1 2 tcp 1040 ------- 2 1.1 2.0 4 118
+ 1.06296 2 1 ack 40 ------- 2 2.0 1.1 4 126
- 1.06296 2 1 ack 40 ------- 2 2.0 1.1 4 126
r 1.06712 1 2 tcp 1040 ------- 2 1.1 2.0 5 119
+ 1.06712 2 1 ack 40 ------- 2 2.0 1.1 5 127
- 1.06712 2 1 ack 40 ------- 2 2.0 1.1 5 127
r 1.06896 2 1 ack 40 ------- 2 2.0 1.1 3 123
+ 1.06896 1 2 tcp 1040 ------- 2 1.1 2.0 7 128
- 1.06896 1 2 tcp 1040 ------- 2 1.1 2.0 7 128
+ 1.07 1 2 tcp 1040 ------- 2 1.1 2.0 8 129
+ 1.07 0 1 tcp 1040 ------- 1 0.0 1.0 58 130
- 1.07 0 1 tcp 1040 ------- 1 0.0 1.0 58 130
r 1.07128 1 2 tcp 1040 ------- 2 1.1 2.0 6 120
+ 1.07128 2 1 ack 40 ------- 2 2.0 1.1 6 131
- 1.07128 2 1 ack 40 ------- 2 2.0 1.1 6 131
r 1.072773 0 1 tcp 1040 ------- 1 0.0 1.0 57 124
+ 1.072773 1 0 ack 40 ------- 1 1.0 0.0 57 132
- 1.072773 1 0 ack 40 ------- 1 1.0 0.0 57 132
r 1.07288 1 0 ack 40 ------- 1 1.0 0.0 56 125
r 1.07312 2 1 ack 40 ------- 2 2.0 1.1 4 126
- 1.07312 1 2 tcp 1040 ------- 2 1.1 2.0 8 129
r 1.07728 2 1 ack 40 ------- 2 2.0 1.1 5 127
+ 1.08 1 2 tcp 1040 ------- 2 1.1 2.0 9 133
- 1.08 1 2 tcp 1040 ------- 2 1.1 2.0 9 133
+ 1.08 0 1 tcp 1040 ------- 1 0.0 1.0 59 134
- 1.08 0 1 tcp 1040 ------- 1 0.0 1.0 59 134
r 1.08144 2 1 ack 40 ------- 2 2.0 1.1 6 131
r 1.082773 0 1 tcp 1040 ------- 1 0.0 1.0 58 130
+ 1.082773 1 0 ack 40 ------- 1 1.0 0.0 58 135
- 1.082773 1 0 ack 40 ------- 1 1.0 0.0 58 135
r 1.08288 1 0 ack 40 ------- 1 1.0 0.0 57 132
r 1.08312 1 2 tcp 1040 ------- 2 1.1 2.0 7 128
+ 1.08312 2 1 ack 40 ------- 2 2.0 1.1 7 136
- 1.08312 2 1 ack 40 ------- 2 2.0 1.1 7 136
r 1.08728 1 2 tcp 1040 ------- 2 1.1 2.0 8 129
+ 1.08728 2 1 ack 40 ------- 2 2.0 1.1 8 137
- 1.08728 2 1 ack 40 ------- 2 2.0 1.1 8 137
+ 1.09 1 2 tcp 1040 ------- 2 1.1 2.0 10 138
- 1.09 1 2 tcp 1040 ------- 2 1.1 2.0 10 138
+ 1.09 0 1 tcp 1040 ------- 1 0.0 1.0 60 139
- 1.09 0 1 tcp 1040 ------- 1 0.0 1.0 60 139
r 1.092773 0 1 tcp 1040 ------- 1 0.0 1.0 59 134
+ 1.092773 1 0 ack 40 ------- 1 1.0 0.0 59 140
- 1.092773 1 0 ack 40 ------- 1 1.0 0.0 59 140
r 1.09288 1 0 ack 40 ------- 1 1.0 0.0 58 135
r 1.09328 2 1 ack 40 ------- 2 2.0 1.1 7 136
r 1.09416 1 2 tcp 1040 ------- 2 1.1 2.0 9 133
+ 1.09416 2 1 ack 40 ------- 2 2.0 1.1 9 141
- 1.09416 2 1 ack 40 ------- 2 2.0 1.1 9 141
r 1.09744 2 1 ack 40 ------- 2 2.0 1.1 8 137
+ 1.1 1 2 tcp 1040 ------- 2 1.1 2.0 11 142
- 1.1 1 2 tcp 1040 ------- 2 1.1 2.0 11 142
+ 1.1 0 1 tcp 1040 ------- 1 0.0 1.0 61 143
- 1.1 0 1 tcp 1040 ------- 1 0.0 1.0 61 143
r 1.102773 0 1 tcp 1040 ------- 1 0.0 1.0 60 139
+ 1.102773 1 0 ack 40 ------- 1 1.0 0.0 60 144
- 1.102773 1 0 ack 40 ------- 1 1.0 0.0 60 144
r 1.10288 1 0 ack 40 ------- 1 1.0 0.0 59 140
r 1.10416 1 2 tcp 1040 ------- 2 1.1 2.0 10 138
+ 1.10416 2 1 ack 40 ------- 2 2.0 1.1 10 145
- 1.10416 2 1 ack 40 ------- 2 2.0 1.1 10 145
r 1.10432 2 1 ack 40 ------- 2 2.0 1.1 9 141
+ 1.11 1 2 tcp 1040 ------- 2 1.1 2.0 12 146
- 1.11 1 2 tcp 1040 ------- 2 1.1 2.0 12 146
+ 1.11 0 1 tcp 1040 ------- 1 0.0 1.0 62 147
- 1.11 0 1 tcp 1040 ------- 1 0.0 1.0 62 147
r 1.112773 0 1 tcp 1040 ------- 1 0.0 1.0 61 143
+ 1.112773 1 0 ack 40 ------- 1 1.0 0.0 61 148
- 1.112773 1 0 ack 40 ------- 1 1.0 0.0 61 148
r 1.11288 1 0 ack 40 ------- 1 1.0 0.0 60 144
r 1.11416 1 2 tcp 1040 ------- 2 1.1 2.0 11 142
+ 1.11416 2 1 ack 40 ------- 2 2.0 1.1 11 149
- 1.11416 2 1 ack 40 ------- 2 2.0 1.1 11 149
r 1.11432 2 1 ack 40 ------- 2 2.0 1.1 10 145
+ 1.12 1 2 tcp 1040 ------- 2 1.1 2.0 13 150
- 1.12 1 2 tcp 1040 ------- 2 1.1 2.0 13 150
+ 1.12 0 1 tcp 1040 ------- 1 0.0 1.0 63 151
- 1.12 0 1 tcp 1040 ------- 1 0.0 1.0 63 151
r 1.122773 0 1 tcp 1040 ------- 1 0.0 1.0 62 147
+ 1.122773 1 0 ack 40 ------- 1 1.0 0.0 62 152
- 1.122773 1 0 ack 40 ------- 1 1.0 0.0 62 152
r 1.12288 1 0 ack 40 ------- 1 1.0 0.0 61 148
r 1.12416 1 2 tcp 1040 ------- 2 1.1 2.0 12 146
+ 1.12416 2 1 ack 40 ------- 2 2.0 1.1 12 153
- 1.12416 2 1 ack 40 ------- 2 2.0 1.1 12 153
r 1.12432 2 1 ack 40 ------- 2 2.0 1.1 11 149
+ 1.13 1 2 tcp 1040 ------- 2 1.1 2.0 14 154
- 1.13 1 2 tcp 1040 ------- 2 1.1 2.0 14 154
+ 1.13 0 1 tcp 1040 ------- 1 0.0 1.0 64 155
- 1.13 0 1 tcp 1040 ------- 1 0.0 1.0 64 155
r 1.132773 0 1 tcp 1040 ------- 1 0.0 1.0 63 151
+ 1.132773 1 0 ack 40 ------- 1 1.0 0.0 63 156
- 1.132773 1 0 ack 40 ------- 1 1.0 0.0 63 156
r 1.13288 1 0 ack 40 ------- 1 1.0 0.0 62 152
r 1.13416 1 2 tcp 1040 ------- 2 1.1 2.0 13 150
+ 1.13416 2 1 ack 40 ------- 2 2.0 1.1 13 157
- 1.13416 2 1 ack 40 ------- 2 2.0 1.1 13 157
r 1.13432 2 1 ack 40 ------- 2 2.0 1.1 12 153
+ 1.14 1 2 tcp 1040 ------- 2 1.1 2.0 15 158
- 1.14 1 2 tcp 1040 ------- 2 1.1 2.0 15 158
+ 1.14 0 1 tcp 1040 ------- 1 0.0 1.0 65 159
- 1.14 0 1 tcp 1040 ------- 1 0.0 1.0 65 159
r 1.142773 0 1 tcp 1040 ------- 1 0.0 1.0 64 155
+ 1.142773 1 0 ack 40 ------- 1 1.0 0.0 64 160
- 1.142773 1 0 ack 40 ------- 1 1.0 0.0 64 160
r 1.14288 1 0 ack 40 ------- 1 1.0 0.0 63 156
r 1.14416 1 2 tcp 1040 ------- 2 1.1 2.0 14 154
+ 1.14416 2 1 ack 40 ------- 2 2.0 1.1 14 161
- 1.14416 2 1 ack 40 ------- 2 2.0 1.1 14 161
r 1.14432 2 1 ack 40 ------- 2 2.0 1.1 13 157
+ 1.15 1 2 tcp 1040 ------- 2 1.1 2.0 16 162
- 1.15 1 2 tcp 1040 ------- 2 1.1 2.0 16 162
+ 1.15 0 1 tcp 1040 ------- 1 0.0 1.0 66 163
- 1.15 0 1 tcp 1040 ------- 1 0.0 1.0 66 163
r 1.152773 0 1 tcp 1040 ------- 1 0.0 1.0 65 159
+ 1.152773 1 0 ack 40 ------- 1 1.0 0.0 65 164
- 1.152773 1 0 ack 40 ------- 1 1.0 0.0 65 164
r 1.15288 1 0 ack 40 ------- 1 1.0 0.0 64 160
r 1.15416 1 2 tcp 1040 ------- 2 1.1 2.0 15 158
+ 1.15416 2 1 ack 40 ------- 2 2.0 1.1 15 165
- 1.15416 2 1 ack 40 ------- 2 2.0 1.1 15 165
r 1.15432 2 1 ack 40 ------- 2 2.0 1.1 14 161
+ 1.16 1 2 tcp 1040 ------- 2 1.1 2.0 17 166
- 1.16 1 2 tcp 1040 ------- 2 1.1 2.0 17 166
+ 1.16 0 1 tcp 1040 ------- 1 0.0 1.0 67 167
- 1.16 0 1 tcp 1040 ------- 1 0.0 1.0 67 167
r 1.162773 0 1 tcp 1040 ------- 1 0.0 1.0 66 163
+ 1.162773 1 0 ack 40 ------- 1 1.0 0.0 66 168
- 1.162773 1 0 ack 40 ------- 1 1.0 0.0 66 168
r 1.16288 1 0 ack 40 ------- 1 1.0 0.0 65 164
r 1.16416 1 2 tcp 1040 ------- 2 1.1 2.0 16 162
+ 1.16416 2 1 ack 40 ------- 2 2.0 1.1 16 169
- 1.16416 2 1 ack 40 ------- 2 2.0 1.1 16 169
r 1.16432 2 1 ack 40 ------- 2 2.0 1.1 15 165
+ 1.17 1 2 tcp 1040 ------- 2 1.1 2.0 18 170
- 1.17 1 2 tcp 1040 ------- 2 1.1 2.0 18 170
+ 1.17 0 1 tcp 1040 ------- 1 0.0 1.0 68 171
- 1.17 0 1 tcp 1040 ------- 1 0.0 1.0 68 171
r 1.172773 0 1 tcp 1040 ------- 1 0.0 1.0 67 167
+ 1.172773 1 0 ack 40 ------- 1 1.0 0.0 67 172
- 1.172773 1 0 ack 40 ------- 1 1.0 0.0 67 172
r 1.17288 1 0 ack 40 ------- 1 1.0 0.0 66 168
r 1.17416 1 2 tcp 1040 ------- 2 1.1 2.0 17 166
+ 1.17416 2 1 ack 40 ------- 2 2.0 1.1 17 173
- 1.17416 2 1 ack 40 ------- 2 2.0 1.1 17 173
r 1.17432 2 1 ack 40 ------- 2 2.0 1.1 16 169
+ 1.18 1 2 tcp 1040 ------- 2 1.1 2.0 19 174
- 1.18 1 2 tcp 1040 ------- 2 1.1 2.0 19 174
+ 1.18 0 1 tcp 1040 ------- 1 0.0 1.0 69 175
- 1.18 0 1 tcp 1040 ------- 1 0.0 1.0 69 175
r 1.182773 0 1 tcp 1040 ------- 1 0.0 1.0 68 171
+ 1.182773 1 0 ack 40 ------- 1 1.0 0.0 68 176
- 1.182773 1 0 ack 40 ------- 1 1.0 0.0 68 176
r 1.18288 1 0 ack 40 ------- 1 1.0 0.0 67 172
r 1.18416 1 2 tcp 1040 ------- 2 1.1 2.0 18 170
+ 1.18416 2 1 ack 40 ------- 2 2.0 1.1 18 177
- 1.18416 2 1 ack 40 ------- 2 2.0 1.1 18 177
r 1.18432 2 1 ack 40 ------- 2 2.0 1.1 17 173
+ 1.19 1 2 tcp 1040 ------- 2 1.1 2.0 20 178
- 1.19 1 2 tcp 1040 ------- 2 1.1 2.0 20 178
+ 1.19 0 1 tcp 1040 ------- 1 0.0 1.0 70 179
- 1.19 0 1 tcp 1040 ------- 1 0.0 1.0 70 179
r 1.192773 0 1 tcp 1040 ------- 1 0.0 1.0 69 175
+ 1.192773 1 0 ack 40 ------- 1 1.0 0.0 69 180
- 1.192773 1 0 ack 40 ------- 1 1.0 0.0 69 180
r 1.19288 1 0 ack 40 ------- 1 1.0 0.0 68 176
r 1.19416 1 2 tcp 1040 ------- 2 1.1 2.0 19 174
+ 1.19416 2 1 ack 40 ------- 2 2.0 1.1 19 181
- 1.19416 2 1 ack 40 ------- 2 2.0 1.1 19 181
r 1.19432 2 1 ack 40 ------- 2 2.0 1.1 18 177
+ 1.2 1 2 tcp 1040 ------- 2 1.1 2.0 21 182
- 1.2 1 2 tcp 1040 ------- 2 1.1 2.0 21 182
+ 1.2 0 1 tcp 1040 ------- 1 0.0 1.0 71 183
- 1.2 0 1 tcp 1040 ------- 1 0.0 1.0 71 183
r 1.202773 0 1 tcp 1040 ------- 1 0.0 1.0 70 179
+ 1.202773 1 0 ack 40 ------- 1 1.0 0.0 70 184
- 1.202773 1 0 ack 40 ------- 1 1.0 0.0 70 184
r 1.20288 1 0 ack 40 ------- 1 1.0 0.0 69 180
r 1.20416 1 2 tcp 1040 ------- 2 1.1 2.0 20 178
+ 1.20416 2 1 ack 40 ------- 2 2.0 1.1 20 185
- 1.20416 2 1 ack 40 ------- 2 2.0 1.1 20 185
r 1.20432 2 1 ack 40 ------- 2 2.0 1.1 19 181
+ 1.21 1 2 tcp 1040 ------- 2 1.1 2.0 22 186
- 1.21 1 2 tcp 1040 ------- 2 1.1 2.0 22 186
+ 1.21 0 1 tcp 1040 ------- 1 0.0 1.0 72 187
- 1.21 0 1 tcp 1040 ------- 1 0.0 1.0 72 187
r 1.212773 0 1 tcp 1040 ------- 1 0.0 1.0 71 183
+ 1.212773 1 0 ack 40 ------- 1 1.0 0.0 71 188
- 1.212773 1 0 ack 40 ------- 1 1.0 0.0 71 188
r 1.21288 1 0 ack 40 ------- 1 1.0 0.0 70 184
r 1.21416 1 2 tcp 1040 ------- 2 1.1 2.0 21 182
+ 1.21416 2 1 ack 40 ------- 2 2.0 1.1 21 189
- 1.21416 2 1 ack 40 ------- 2 2.0 1.1 21 189
r 1.21432 2 1 ack 40 ------- 2 2.0 1.1 20 185
+ 1.22 1 2 tcp 1040 ------- 2 1.1 2.0 23 190
- 1.22 1 2 tcp 1040 ------- 2 1.1 2.0 23 190
+ 1.22 0 1 tcp 1040 ------- 1 0.0 1.0 73 191
- 1.22 0 1 tcp 1040 ------- 1 0.0 1.0 73 191
r 1.222773 0 1 tcp 1040 ------- 1 0.0 1.0 72 187
+ 1.222773 1 0 ack 40 ------- 1 1.0 0.0 72 192
- 1.222773 1 0 ack 40 ------- 1 1.0 0.0 72 192
r 1.22288 1 0 ack 40 ------- 1 1.0 0.0 71 188
r 1.22416 1 2 tcp 1040 ------- 2 1.1 2.0 22 186
+ 1.22416 2 1 ack 40 ------- 2 2.0 1.1 22 193
- 1.22416 2 1 ack 40 ------- 2 2.0 1.1 22 193
r 1.22432 2 1 ack 40 ------- 2 2.0 1.1 21 189
+ 1.23 1 2 tcp 1040 ------- 2 1.1 2.0 24 194
- 1.23 1 2 tcp 1040 ------- 2 1.1 2.0 24 194
+ 1.23 0 1 tcp 1040 ------- 1 0.0 1.0 74 195
- 1.23 0 1 tcp 1040 ------- 1 0.0 1.0 74 195
r 1.232773 0 1 tcp 1040 ------- 1 0.0 1.0 73 191
+ 1.232773 1 0 ack 40 ------- 1 1.0 0.0 73 196
- 1.232773 1 0 ack 40 ------- 1 1.0 0.0 73 196
r 1.23288 1 0 ack 40 ------- 1 1.0 0.0 72 192
r 1.23416 1 2 tcp 1040 ------- 2 1.1 2.0 23 190
+ 1.23416 2 1 ack 40 ------- 2 2.0 1.1 23 197
- 1.23416 2 1 ack 40 ------- 2 2.0 1.1 23 197
r 1.23432 2 1 ack 40 ------- 2 2.0 1.1 22 193
+ 1.24 1 2 tcp 1040 ------- 2 1.1 2.0 25 198
- 1.24 1 2 tcp 1040 ------- 2 1.1 2.0 25 198
+ 1.24 0 1 tcp 1040 ------- 1 0.0 1.0 75 199
- 1.24 0 1 tcp 1040 ------- 1 0.0 1.0 75 199
r 1.242773 0 1 tcp 1040 ------- 1 0.0 1.0 74 195
+ 1.242773 1 0 ack 40 ------- 1 1.0 0.0 74 200
- 1.242773 1 0 ack 40 ------- 1 1.0 0.0 74 200
r 1.24288 1 0 ack 40 ------- 1 1.0 0.0 73 196
r 1.24416 1 2 tcp 1040 ------- 2 1.1 2.0 24 194
+ 1.24416 2 1 ack 40 ------- 2 2.0 1.1 24 201
- 1.24416 2 1 ack 40 ------- 2 2.0 1.1 24 201
r 1.24432 2 1 ack 40 ------- 2 2.0 1.1 23 197
+ 1.25 1 2 tcp 1040 ------- 2 1.1 2.0 26 202
- 1.25 1 2 tcp 1040 ------- 2 1.1 2.0 26 202
+ 1.25 0 1 tcp 1040 ------- 1 0.0 1.0 76 203
- 1.25 0 1 tcp 1040 ------- 1 0.0 1.0 76 203
r 1.252773 0 1 tcp 1040 ------- 1 0.0 1.0 75 199
+ 1.252773 1 0 ack 40 ------- 1 1.0 0.0 75 204
- 1.252773 1 0 ack 40 ------- 1 1.0 0.0 75 204
r 1.25288 1 0 ack 40 ------- 1 1.0 0.0 74 200
r 1.25416 1 2 tcp 1040 ------- 2 1.1 2.0 25 198
+ 1.25416 2 1 ack 40 ------- 2 2.0 1.1 25 205
- 1.25416 2 1 ack 40 ------- 2 2.0 1.1 25 205
r 1.25432 2 1 ack 40 ------- 2 2.0 1.1 24 201
+ 1.26 1 2 tcp 1040 ------- 2 1.1 2.0 27 206
- 1.26 1 2 tcp 1040 ------- 2 1.1 2.0 27 206
+ 1.26 0 1 tcp 1040 ------- 1 0.0 1.0 77 207
- 1.26 0 1 tcp 1040 ------- 1 0.0 1.0 77 207
r 1.262773 0 1 tcp 1040 ------- 1 0.0 1.0 76 203
+ 1.262773 1 0 ack 40 ------- 1 1.0 0.0 76 208
- 1.262773 1 0 ack 40 ------- 1 1.0 0.0 76 208
r 1.26288 1 0 ack 40 ------- 1 1.0 0.0 75 204
r 1.26416 1 2 tcp 1040 ------- 2 1.1 2.0 26 202
+ 1.26416 2 1 ack 40 ------- 2 2.0 1.1 26 209
- 1.26416 2 1 ack 40 ------- 2 2.0 1.1 26 209
r 1.26432 2 1 ack 40 ------- 2 2.0 1.1 25 205
+ 1.27 1 2 tcp 1040 ------- 2 1.1 2.0 28 210
- 1.27 1 2 tcp 1040 ------- 2 1.1 2.0 28 210
+ 1.27 0 1 tcp 1040 ------- 1 0.0 1.0 78 211
- 1.27 0 1 tcp 1040 ------- 1 0.0 1.0 78 211
r 1.272773 0 1 tcp 1040 ------- 1 0.0 1.0 77 207
+ 1.272773 1 0 ack 40 ------- 1 1.0 0.0 77 212
- 1.272773 1 0 ack 40 ------- 1 1.0 0.0 77 212
r 1.27288 1 0 ack 40 ------- 1 1.0 0.0 76 208
r 1.27416 1 2 tcp 1040 ------- 2 1.1 2.0 27 206
+ 1.27416 2 1 ack 40 ------- 2 2.0 1.1 27 213
- 1.27416 2 1 ack 40 ------- 2 2.0 1.1 27 213
r 1.27432 2 1 ack 40 ------- 2 2.0 1.1 26 209
+ 1.28 1 2 tcp 1040 ------- 2 1.1 2.0 29 214
- 1.28 1 2 tcp 1040 ------- 2 1.1 2.0 29 214
+ 1.28 0 1 tcp 1040 ------- 1 0.0 1.0 79 215
- 1.28 0 1 tcp 1040 ------- 1 0.0 1.0 79 215
r 1.282773 0 1 tcp 1040 ------- 1 0.0 1.0 78 211
+ 1.282773 1 0 ack 40 ------- 1 1.0 0.0 78 216
- 1.282773 1 0 ack 40 ------- 1 1.0 0.0 78 216
r 1.28288 1 0 ack 40 ------- 1 1.0 0.0 77 212
r 1.28416 1 2 tcp 1040 ------- 2 1.1 2.0 28 210
+ 1.28416 2 1 ack 40 ------- 2 2.0 1.1 28 217
- 1.28416 2 1 ack 40 ------- 2 2.0 1.1 28 217
r 1.28432 2 1 ack 40 ------- 2 2.0 1.1 27 213
+ 1.29 1 2 tcp 1040 ------- 2 1.1 2.0 30 218
- 1.29 1 2 tcp 1040 ------- 2 1.1 2.0 30 218
+ 1.29 0 1 tcp 1040 ------- 1 0.0 1.0 80 219
- 1.29 0 1 tcp 1040 ------- 1 0.0 1.0 80 219
r 1.292773 0 1 tcp 1040 ------- 1 0.0 1.0 79 215