V -t * -v 1.0a5 -a 0
A -t * -n 1 -p 0 -o 0x7fffffff -c 30 -a 1
A -t * -h 1 -m 1073741823 -s 0
n -t * -a 0 -s 0 -S UP -v hexagon -c red -i red
n -t * -a 1 -s 1 -S UP -v box -c blue -i blue
n -t * -a 2 -s 2 -S UP -v box -c blue -i blue
n -t * -a 3 -s 3 -S UP -v box -c blue -i blue
l -t * -s 0 -d 1 -S UP -r 1000000 -D 0.01 -c black
l -t * -s 0 -d 2 -S UP -r 1000000 -D 0.01 -c black
l -t * -s 0 -d 3 -S UP -r 1000000 -D 0.01 -c black
+ -t 0.5 -s 1 -d 0 -p tcp -e 40 -c 0 -i 0 -a 0 -x {1.0 2.0 0 ------- null}
- -t 0.5 -s 1 -d 0 -p tcp -e 40 -c 0 -i 0 -a 0 -x {1.0 2.0 0 ------- null}
h -t 0.5 -s 1 -d 0 -p tcp -e 40 -c 0 -i 0 -a 0 -x {1.0 2.0 -1 ------- null}
+ -t 0.5 -s 3 -d 0 -p tcp -e 40 -c 0 -i 1 -a 0 -x {3.0 2.1 0 ------- null}
- -t 0.5 -s 3 -d 0 -p tcp -e 40 -c 0 -i 1 -a 0 -x {3.0 2.1 0 ------- null}
h -t 0.5 -s 3 -d 0 -p tcp -e 40 -c 0 -i 1 -a 0 -x {3.0 2.1 -1 ------- null}
r -t 0.51032 -s 1 -d 0 -p tcp -e 40 -c 0 -i 0 -a 0 -x {1.0 2.0 0 ------- null}
+ -t 0.51032 -s 0 -d 2 -p tcp -e 40 -c 0 -i 0 -a 0 -x {1.0 2.0 0 ------- null}
- -t 0.51032 -s 0 -d 2 -p tcp -e 40 -c 0 -i 0 -a 0 -x {1.0 2.0 0 ------- null}
h -t 0.51032 -s 0 -d 2 -p tcp -e 40 -c 0 -i 0 -a 0 -x {1.0 2.0 -1 ------- null}
r -t 0.51032 -s 3 -d 0 -p tcp -e 40 -c 0 -i 1 -a 0 -x {3.0 2.1 0 ------- null}
+ -t 0.51032 -s 0 -d 2 -p tcp -e 40 -c 0 -i 1 -a 0 -x {3.0 2.1 0 ------- null}
- -t 0.51064 -s 0 -d 2 -p tcp -e 40 -c 0 -i 1 -a 0 -x {3.0 2.1 0 ------- null}
h -t 0.51064 -s 0 -d 2 -p tcp -e 40 -c 0 -i 1 -a 0 -x {3.0 2.1 -1 ------- null}
r -t 0.52064 -s 0 -d 2 -p tcp -e 40 -c 0 -i 0 -a 0 -x {1.0 2.0 0 ------- null}
+ -t 0.52064 -s 2 -d 0 -p ack -e 40 -c 0 -i 2 -a 0 -x {2.0 1.0 0 ------- null}
- -t 0.52064 -s 2 -d 0 -p ack -e 40 -c 0 -i 2 -a 0 -x {2.0 1.0 0 ------- null}
h -t 0.52064 -s 2 -d 0 -p ack -e 40 -c 0 -i 2 -a 0 -x {2.0 1.0 -1 ------- null}
r -t 0.52096 -s 0 -d 2 -p tcp -e 40 -c 0 -i 1 -a 0 -x {3.0 2.1 0 ------- null}
+ -t 0.52096 -s 2 -d 0 -p ack -e 40 -c 0 -i 3 -a 0 -x {2.1 3.0 0 ------- null}
- -t 0.52096 -s 2 -d 0 -p ack -e 40 -c 0 -i 3 -a 0 -x {2.1 3.0 0 ------- null}
h -t 0.52096 -s 2 -d 0 -p ack -e 40 -c 0 -i 3 -a 0 -x {2.1 3.0 -1 ------- null}
r -t 0.53096 -s 2 -d 0 -p ack -e 40 -c 0 -i 2 -a 0 -x {2.0 1.0 0 ------- null}
+ -t 0.53096 -s 0 -d 1 -p ack -e 40 -c 0 -i 2 -a 0 -x {2.0 1.0 0 ------- null}
- -t 0.53096 -s 0 -d 1 -p ack -e 40 -c 0 -i 2 -a 0 -x {2.0 1.0 0 ------- null}
h -t 0.53096 -s 0 -d 1 -p ack -e 40 -c 0 -i 2 -a 0 -x {2.0 1.0 -1 ------- null}
r -t 0.53128 -s 2 -d 0 -p ack -e 40 -c 0 -i 3 -a 0 -x {2.1 3.0 0 ------- null}
+ -t 0.53128 -s 0 -d 3 -p ack -e 40 -c 0 -i 3 -a 0 -x {2.1 3.0 0 ------- null}
- -t 0.53128 -s 0 -d 3 -p ack -e 40 -c 0 -i 3 -a 0 -x {2.1 3.0 0 ------- null}
h -t 0.53128 -s 0 -d 3 -p ack -e 40 -c 0 -i 3 -a 0 -x {2.1 3.0 -1 ------- null}
r -t 0.54128 -s 0 -d 1 -p ack -e 40 -c 0 -i 2 -a 0 -x {2.0 1.0 0 ------- null}
+ -t 0.54128 -s 1 -d 0 -p tcp -e 1040 -c 0 -i 4 -a 0 -x {1.0 2.0 1 ------- null}
- -t 0.54128 -s 1 -d 0 -p tcp -e 1040 -c 0 -i 4 -a 0 -x {1.0 2.0 1 ------- null}
h -t 0.54128 -s 1 -d 0 -p tcp -e 1040 -c 0 -i 4 -a 0 -x {1.0 2.0 -1 ------- null}
+ -t 0.54128 -s 1 -d 0 -p tcp -e 1040 -c 0 -i 5 -a 0 -x {1.0 2.0 2 ------- null}
r -t 0.5416 -s 0 -d 3 -p ack -e 40 -c 0 -i 3 -a 0 -x {2.1 3.0 0 ------- null}
+ -t 0.5416 -s 3 -d 0 -p tcp -e 1040 -c 0 -i 6 -a 0 -x {3.0 2.1 1 ------- null}
- -t 0.5416 -s 3 -d 0 -p tcp -e 1040 -c 0 -i 6 -a 0 -x {3.0 2.1 1 ------- null}
h -t 0.5416 -s 3 -d 0 -p tcp -e 1040 -c 0 -i 6 -a 0 -x {3.0 2.1 -1 ------- null}
+ -t 0.5416 -s 3 -d 0 -p tcp -e 1040 -c 0 -i 7 -a 0 -x {3.0 2.1 2 ------- null}
- -t 0.5496 -s 1 -d 0 -p tcp -e 1040 -c 0 -i 5 -a 0 -x {1.0 2.0 2 ------- null}
h -t 0.5496 -s 1 -d 0 -p tcp -e 1040 -c 0 -i 5 -a 0 -x {1.0 2.0 -1 ------- null}
- -t 0.54992 -s 3 -d 0 -p tcp -e 1040 -c 0 -i 7 -a 0 -x {3.0 2.1 2 ------- null}
h -t 0.54992 -s 3 -d 0 -p tcp -e 1040 -c 0 -i 7 -a 0 -x {3.0 2.1 -1 ------- null}
r -t 0.5596 -s 1 -d 0 -p tcp -e 1040 -c 0 -i 4 -a 0 -x {1.0 2.0 1 ------- null}
+ -t 0.5596 -s 0 -d 2 -p tcp -e 1040 -c 0 -i 4 -a 0 -x {1.0 2.0 1 ------- null}
- -t 0.5596 -s 0 -d 2 -p tcp -e 1040 -c 0 -i 4 -a 0 -x {1.0 2.0 1 ------- null}
h -t 0.5596 -s 0 -d 2 -p tcp -e 1040 -c 0 -i 4 -a 0 -x {1.0 2.0 -1 ------- null}
r -t 0.55992 -s 3 -d 0 -p tcp -e 1040 -c 0 -i 6 -a 0 -x {3.0 2.1 1 ------- null}
+ -t 0.55992 -s 0 -d 2 -p tcp -e 1040 -c 0 -i 6 -a 0 -x {3.0 2.1 1 ------- null}
r -t 0.56792 -s 1 -d 0 -p tcp -e 1040 -c 0 -i 5 -a 0 -x {1.0 2.0 2 ------- null}
+ -t 0.56792 -s 0 -d 2 -p tcp -e 1040 -c 0 -i 5 -a 0 -x {1.0 2.0 2 ------- null}
- -t 0.56792 -s 0 -d 2 -p tcp -e 1040 -c 0 -i 6 -a 0 -x {3.0 2.1 1 ------- null}
h -t 0.56792 -s 0 -d 2 -p tcp -e 1040 -c 0 -i 6 -a 0 -x {3.0 2.1 -1 ------- null}
r -t 0.56824 -s 3 -d 0 -p tcp -e 1040 -c 0 -i 7 -a 0 -x {3.0 2.1 2 ------- null}
+ -t 0.56824 -s 0 -d 2 -p tcp -e 1040 -c 0 -i 7 -a 0 -x {3.0 2.1 2 ------- null}
- -t 0.57624 -s 0 -d 2 -p tcp -e 1040 -c 0 -i 5 -a 0 -x {1.0 2.0 2 ------- null}
h -t 0.57624 -s 0 -d 2 -p tcp -e 1040 -c 0 -i 5 -a 0 -x {1.0 2.0 -1 ------- null}
r -t 0.57792 -s 0 -d 2 -p tcp -e 1040 -c 0 -i 4 -a 0 -x {1.0 2.0 1 ------- null}
+ -t 0.57792 -s 2 -d 0 -p ack -e 40 -c 0 -i 8 -a 0 -x {2.0 1.0 1 ------- null}
- -t 0.57792 -s 2 -d 0 -p ack -e 40 -c 0 -i 8 -a 0 -x {2.0 1.0 1 ------- null}
h -t 0.57792 -s 2 -d 0 -p ack -e 40 -c 0 -i 8 -a 0 -x {2.0 1.0 -1 ------- null}
- -t 0.58456 -s 0 -d 2 -p tcp -e 1040 -c 0 -i 7 -a 0 -x {3.0 2.1 2 ------- null}
h -t 0.58456 -s 0 -d 2 -p tcp -e 1040 -c 0 -i 7 -a 0 -x {3.0 2.1 -1 ------- null}
r -t 0.58624 -s 0 -d 2 -p tcp -e 1040 -c 0 -i 6 -a 0 -x {3.0 2.1 1 ------- null}
+ -t 0.58624 -s 2 -d 0 -p ack -e 40 -c 0 -i 9 -a 0 -x {2.1 3.0 1 ------- null}
- -t 0.58624 -s 2 -d 0 -p ack -e 40 -c 0 -i 9 -a 0 -x {2.1 3.0 1 ------- null}
h -t 0.58624 -s 2 -d 0 -p ack -e 40 -c 0 -i 9 -a 0 -x {2.1 3.0 -1 ------- null}
r -t 0.58824 -s 2 -d 0 -p ack -e 40 -c 0 -i 8 -a 0 -x {2.0 1.0 1 ------- null}
+ -t 0.58824 -s 0 -d 1 -p ack -e 40 -c 0 -i 8 -a 0 -x {2.0 1.0 1 ------- null}
- -t 0.58824 -s 0 -d 1 -p ack -e 40 -c 0 -i 8 -a 0 -x {2.0 1.0 1 ------- null}
h -t 0.58824 -s 0 -d 1 -p ack -e 40 -c 0 -i 8 -a 0 -x {2.0 1.0 -1 ------- null}
r -t 0.59456 -s 0 -d 2 -p tcp -e 1040 -c 0 -i 5 -a 0 -x {1.0 2.0 2 ------- null}
+ -t 0.59456 -s 2 -d 0 -p ack -e 40 -c 0 -i 10 -a 0 -x {2.0 1.0 2 ------- null}
- -t 0.59456 -s 2 -d 0 -p ack -e 40 -c 0 -i 10 -a 0 -x {2.0 1.0 2 ------- null}
h -t 0.59456 -s 2 -d 0 -p ack -e 40 -c 0 -i 10 -a 0 -x {2.0 1.0 -1 ------- null}
r -t 0.59656 -s 2 -d 0 -p ack -e 40 -c 0 -i 9 -a 0 -x {2.1 3.0 1 ------- null}
+ -t 0.59656 -s 0 -d 3 -p ack -e 40 -c 0 -i 9 -a 0 -x {2.1 3.0 1 ------- null}
- -t 0.59656 -s 0 -d 3 -p ack -e 40 -c 0 -i 9 -a 0 -x {2.1 3.0 1 ------- null}
h -t 0.59656 -s 0 -d 3 -p ack -e 40 -c 0 -i 9 -a 0 -x {2.1 3.0 -1 ------- null}
r -t 0.59856 -s 0 -d 1 -p ack -e 40 -c 0 -i 8 -a 0 -x {2.0 1.0 1 ------- null}
+ -t 0.59856 -s 1 -d 0 -p tcp -e 1040 -c 0 -i 11 -a 0 -x {1.0 2.0 3 ------- null}
- -t 0.59856 -s 1 -d 0 -p tcp -e 1040 -c 0 -i 11 -a 0 -x {1.0 2.0 3 ------- null}
h -t 0.59856 -s 1 -d 0 -p tcp -e 1040 -c 0 -i 11 -a 0 -x {1.0 2.0 -1 ------- null}
+ -t 0.59856 -s 1 -d 0 -p tcp -e 1040 -c 0 -i 12 -a 0 -x {1.0 2.0 4 ------- null}
r -t 0.60288 -s 0 -d 2 -p tcp -e 1040 -c 0 -i 7 -a 0 -x {3.0 2.1 2 ------- null}
+ -t 0.60288 -s 2 -d 0 -p ack -e 40 -c 0 -i 13 -a 0 -x {2.1 3.0 2 ------- null}
- -t 0.60288 -s 2 -d 0 -p ack -e 40 -c 0 -i 13 -a 0 -x {2.1 3.0 2 ------- null}
h -t 0.60288 -s 2 -d 0 -p ack -e 40 -c 0 -i 13 -a 0 -x {2.1 3.0 -1 ------- null}
r -t 0.60488 -s 2 -d 0 -p ack -e 40 -c 0 -i 10 -a 0 -x {2.0 1.0 2 ------- null}
+ -t 0.60488 -s 0 -d 1 -p ack -e 40 -c 0 -i 10 -a 0 -x {2.0 1.0 2 ------- null}
- -t 0.60488 -s 0 -d 1 -p ack -e 40 -c 0 -i 10 -a 0 -x {2.0 1.0 2 ------- null}
h -t 0.60488 -s 0 -d 1 -p ack -e 40 -c 0 -i 10 -a 0 -x {2.0 1.0 -1 ------- null}
r -t 0.60688 -s 0 -d 3 -p ack -e 40 -c 0 -i 9 -a 0 -x {2.1 3.0 1 ------- null}
+ -t 0.60688 -s 3 -d 0 -p tcp -e 1040 -c 0 -i 14 -a 0 -x {3.0 2.1 3 ------- null}
- -t 0.60688 -s 3 -d 0 -p tcp -e 1040 -c 0 -i 14 -a 0 -x {3.0 2.1 3 ------- null}
h -t 0.60688 -s 3 -d 0 -p tcp -e 1040 -c 0 -i 14 -a 0 -x {3.0 2.1 -1 ------- null}
+ -t 0.60688 -s 3 -d 0 -p tcp -e 1040 -c 0 -i 15 -a 0 -x {3.0 2.1 4 ------- null}
- -t 0.60688 -s 1 -d 0 -p tcp -e 1040 -c 0 -i 12 -a 0 -x {1.0 2.0 4 ------- null}
h -t 0.60688 -s 1 -d 0 -p tcp -e 1040 -c 0 -i 12 -a 0 -x {1.0 2.0 -1 ------- null}
r -t 0.6132 -s 2 -d 0 -p ack -e 40 -c 0 -i 13 -a 0 -x {2.1 3.0 2 ------- null}
+ -t 0.6132 -s 0 -d 3 -p ack -e 40 -c 0 -i 13 -a 0 -x {2.1 3.0 2 ------- null}
- -t 0.6132 -s 0 -d 3 -p ack -e 40 -c 0 -i 13 -a 0 -x {2.1 3.0 2 ------- null}
h -t 0.6132 -s 0 -d 3 -p ack -e 40 -c 0 -i 13 -a 0 -x {2.1 3.0 -1 ------- null}
r -t 0.6152 -s 0 -d 1 -p ack -e 40 -c 0 -i 10 -a 0 -x {2.0 1.0 2 ------- null}
+ -t 0.6152 -s 1 -d 0 -p tcp -e 1040 -c 0 -i 16 -a 0 -x {1.0 2.0 5 ------- null}
+ -t 0.6152 -s 1 -d 0 -p tcp -e 1040 -c 0 -i 17 -a 0 -x {1.0 2.0 6 ------- null}
- -t 0.6152 -s 3 -d 0 -p tcp -e 1040 -c 0 -i 15 -a 0 -x {3.0 2.1 4 ------- null}
h -t 0.6152 -s 3 -d 0 -p tcp -e 1040 -c 0 -i 15 -a 0 -x {3.0 2.1 -1 ------- null}
- -t 0.6152 -s 1 -d 0 -p tcp -e 1040 -c 0 -i 16 -a 0 -x {1.0 2.0 5 ------- null}
h -t 0.6152 -s 1 -d 0 -p tcp -e 1040 -c 0 -i 16 -a 0 -x {1.0 2.0 -1 ------- null}
r -t 0.61688 -s 1 -d 0 -p tcp -e 1040 -c 0 -i 11 -a 0 -x {1.0 2.0 3 ------- null}
+ -t 0.61688 -s 0 -d 2 -p tcp -e 1040 -c 0 -i 11 -a 0 -x {1.0 2.0 3 ------- null}
- -t 0.61688 -s 0 -d 2 -p tcp -e 1040 -c 0 -i 11 -a 0 -x {1.0 2.0 3 ------- null}
h -t 0.61688 -s 0 -d 2 -p tcp -e 1040 -c 0 -i 11 -a 0 -x {1.0 2.0 -1 ------- null}
r -t 0.62352 -s 0 -d 3 -p ack -e 40 -c 0 -i 13 -a 0 -x {2.1 3.0 2 ------- null}
+ -t 0.62352 -s 3 -d 0 -p tcp -e 1040 -c 0 -i 18 -a 0 -x {3.0 2.1 5 ------- null}
+ -t 0.62352 -s 3 -d 0 -p tcp -e 1040 -c 0 -i 19 -a 0 -x {3.0 2.1 6 ------- null}
- -t 0.62352 -s 3 -d 0 -p tcp -e 1040 -c 0 -i 18 -a 0 -x {3.0 2.1 5 ------- null}
h -t 0.62352 -s 3 -d 0 -p tcp -e 1040 -c 0 -i 18 -a 0 -x {3.0 2.1 -1 ------- null}
- -t 0.62352 -s 1 -d 0 -p tcp -e 1040 -c 0 -i 17 -a 0 -x {1.0 2.0 6 ------- null}
h -t 0.62352 -s 1 -d 0 -p tcp -e 1040 -c 0 -i 17 -a 0 -x {1.0 2.0 -1 ------- null}
r -t 0.6252 -s 3 -d 0 -p tcp -e 1040 -c 0 -i 14 -a 0 -x {3.0 2.1 3 ------- null}
+ -t 0.6252 -s 0 -d 2 -p tcp -e 1040 -c 0 -i 14 -a 0 -x {3.0 2.1 3 ------- null}
r -t 0.6252 -s 1 -d 0 -p tcp -e 1040 -c 0 -i 12 -a 0 -x {1.0 2.0 4 ------- null}
+ -t 0.6252 -s 0 -d 2 -p tcp -e 1040 -c 0 -i 12 -a 0 -x {1.0 2.0 4 ------- null}
- -t 0.6252 -s 0 -d 2 -p tcp -e 1040 -c 0 -i 14 -a 0 -x {3.0 2.1 3 ------- null}
h -t 0.6252 -s 0 -d 2 -p tcp -e 1040 -c 0 -i 14 -a 0 -x {3.0 2.1 -1 ------- null}
- -t 0.63184 -s 3 -d 0 -p tcp -e 1040 -c 0 -i 19 -a 0 -x {3.0 2.1 6 ------- null}
h -t 0.63184 -s 3 -d 0 -p tcp -e 1040 -c 0 -i 19 -a 0 -x {3.0 2.1 -1 ------- null}
r -t 0.63352 -s 3 -d 0 -p tcp -e 1040 -c 0 -i 15 -a 0 -x {3.0 2.1 4 ------- null}
+ -t 0.63352 -s 0 -d 2 -p tcp -e 1040 -c 0 -i 15 -a 0 -x {3.0 2.1 4 ------- null}
r -t 0.63352 -s 1 -d 0 -p tcp -e 1040 -c 0 -i 16 -a 0 -x {1.0 2.0 5 ------- null}
+ -t 0.63352 -s 0 -d 2 -p tcp -e 1040 -c 0 -i 16 -a 0 -x {1.0 2.0 5 ------- null}
- -t 0.63352 -s 0 -d 2 -p tcp -e 1040 -c 0 -i 12 -a 0 -x {1.0 2.0 4 ------- null}
h -t 0.63352 -s 0 -d 2 -p tcp -e 1040 -c 0 -i 12 -a 0 -x {1.0 2.0 -1 ------- null}
r -t 0.6352 -s 0 -d 2 -p tcp -e 1040 -c 0 -i 11 -a 0 -x {1.0 2.0 3 ------- null}
+ -t 0.6352 -s 2 -d 0 -p ack -e 40 -c 0 -i 20 -a 0 -x {2.0 1.0 3 ------- null}
- -t 0.6352 -s 2 -d 0 -p ack -e 40 -c 0 -i 20 -a 0 -x {2.0 1.0 3 ------- null}
h -t 0.6352 -s 2 -d 0 -p ack -e 40 -c 0 -i 20 -a 0 -x {2.0 1.0 -1 ------- null}
r -t 0.64184 -s 3 -d 0 -p tcp -e 1040 -c 0 -i 18 -a 0 -x {3.0 2.1 5 ------- null}
+ -t 0.64184 -s 0 -d 2 -p tcp -e 1040 -c 0 -i 18 -a 0 -x {3.0 2.1 5 ------- null}
r -t 0.64184 -s 1 -d 0 -p tcp -e 1040 -c 0 -i 17 -a 0 -x {1.0 2.0 6 ------- null}
+ -t 0.64184 -s 0 -d 2 -p tcp -e 1040 -c 0 -i 17 -a 0 -x {1.0 2.0 6 ------- null}
- -t 0.64184 -s 0 -d 2 -p tcp -e 1040 -c 0 -i 15 -a 0 -x {3.0 2.1 4 ------- null}
h -t 0.64184 -s 0 -d 2 -p tcp -e 1040 -c 0 -i 15 -a 0 -x {3.0 2.1 -1 ------- null}
r -t 0.64352 -s 0 -d 2 -p tcp -e 1040 -c 0 -i 14 -a 0 -x {3.0 2.1 3 ------- null}
+ -t 0.64352 -s 2 -d 0 -p ack -e 40 -c 0 -i 21 -a 0 -x {2.1 3.0 3 ------- null}
- -t 0.64352 -s 2 -d 0 -p ack -e 40 -c 0 -i 21 -a 0 -x {2.1 3.0 3 ------- null}
h -t 0.64352 -s 2 -d 0 -p ack -e 40 -c 0 -i 21 -a 0 -x {2.1 3.0 -1 ------- null}
r -t 0.64552 -s 2 -d 0 -p ack -e 40 -c 0 -i 20 -a 0 -x {2.0 1.0 3 ------- null}
+ -t 0.64552 -s 0 -d 1 -p ack -e 40 -c 0 -i 20 -a 0 -x {2.0 1.0 3 ------- null}
- -t 0.64552 -s 0 -d 1 -p ack -e 40 -c 0 -i 20 -a 0 -x {2.0 1.0 3 ------- null}
h -t 0.64552 -s 0 -d 1 -p ack -e 40 -c 0 -i 20 -a 0 -x {2.0 1.0 -1 ------- null}
r -t 0.65016 -s 3 -d 0 -p tcp -e 1040 -c 0 -i 19 -a 0 -x {3.0 2.1 6 ------- null}
+ -t 0.65016 -s 0 -d 2 -p tcp -e 1040 -c 0 -i 19 -a 0 -x {3.0 2.1 6 ------- null}
- -t 0.65016 -s 0 -d 2 -p tcp -e 1040 -c 0 -i 16 -a 0 -x {1.0 2.0 5 ------- null}
h -t 0.65016 -s 0 -d 2 -p tcp -e 1040 -c 0 -i 16 -a 0 -x {1.0 2.0 -1 ------- null}
r -t 0.65184 -s 0 -d 2 -p tcp -e 1040 -c 0 -i 12 -a 0 -x {1.0 2.0 4 ------- null}
+ -t 0.65184 -s 2 -d 0 -p ack -e 40 -c 0 -i 22 -a 0 -x {2.0 1.0 4 ------- null}
- -t 0.65184 -s 2 -d 0 -p ack -e 40 -c 0 -i 22 -a 0 -x {2.0 1.0 4 ------- null}
h -t 0.65184 -s 2 -d 0 -p ack -e 40 -c 0 -i 22 -a 0 -x {2.0 1.0 -1 ------- null}
r -t 0.65384 -s 2 -d 0 -p ack -e 40 -c 0 -i 21 -a 0 -x {2.1 3.0 3 ------- null}
+ -t 0.65384 -s 0 -d 3 -p ack -e 40 -c 0 -i 21 -a 0 -x {2.1 3.0 3 ------- null}
- -t 0.65384 -s 0 -d 3 -p ack -e 40 -c 0 -i 21 -a 0 -x {2.1 3.0 3 ------- null}
h -t 0.65384 -s 0 -d 3 -p ack -e 40 -c 0 -i 21 -a 0 -x {2.1 3.0 -1 ------- null}
r -t 0.65584 -s 0 -d 1 -p ack -e 40 -c 0 -i 20 -a 0 -x {2.0 1.0 3 ------- null}
+ -t 0.65584 -s 1 -d 0 -p tcp -e 1040 -c 0 -i 23 -a 0 -x {1.0 2.0 7 ------- null}
- -t 0.65584 -s 1 -d 0 -p tcp -e 1040 -c 0 -i 23 -a 0 -x {1.0 2.0 7 ------- null}
h -t 0.65584 -s 1 -d 0 -p tcp -e 1040 -c 0 -i 23 -a 0 -x {1.0 2.0 -1 ------- null}
+ -t 0.65584 -s 1 -d 0 -p tcp -e 1040 -c 0 -i 24 -a 0 -x {1.0 2.0 8 ------- null}
- -t 0.65848 -s 0 -d 2 -p tcp -e 1040 -c 0 -i 18 -a 0 -x {3.0 2.1 5 ------- null}
h -t 0.65848 -s 0 -d 2 -p tcp -e 1040 -c 0 -i 18 -a 0 -x {3.0 2.1 -1 ------- null}
r -t 0.66016 -s 0 -d 2 -p tcp -e 1040 -c 0 -i 15 -a 0 -x {3.0 2.1 4 ------- null}
+ -t 0.66016 -s 2 -d 0 -p ack -e 40 -c 0 -i 25 -a 0 -x {2.1 3.0 4 ------- null}
- -t 0.66016 -s 2 -d 0 -p ack -e 40 -c 0 -i 25 -a 0 -x {2.1 3.0 4 ------- null}
h -t 0.66016 -s 2 -d 0 -p ack -e 40 -c 0 -i 25 -a 0 -x {2.1 3.0 -1 ------- null}
r -t 0.66216 -s 2 -d 0 -p ack -e 40 -c 0 -i 22 -a 0 -x {2.0 1.0 4 ------- null}
+ -t 0.66216 -s 0 -d 1 -p ack -e 40 -c 0 -i 22 -a 0 -x {2.0 1.0 4 ------- null}
- -t 0.66216 -s 0 -d 1 -p ack -e 40 -c 0 -i 22 -a 0 -x {2.0 1.0 4 ------- null}
h -t 0.66216 -s 0 -d 1 -p ack -e 40 -c 0 -i 22 -a 0 -x {2.0 1.0 -1 ------- null}
r -t 0.66416 -s 0 -d 3 -p ack -e 40 -c 0 -i 21 -a 0 -x {2.1 3.0 3 ------- null}
+ -t 0.66416 -s 3 -d 0 -p tcp -e 1040 -c 0 -i 26 -a 0 -x {3.0 2.1 7 ------- null}
- -t 0.66416 -s 3 -d 0 -p tcp -e 1040 -c 0 -i 26 -a 0 -x {3.0 2.1 7 ------- null}
h -t 0.66416 -s 3 -d 0 -p tcp -e 1040 -c 0 -i 26 -a 0 -x {3.0 2.1 -1 ------- null}
+ -t 0.66416 -s 3 -d 0 -p tcp -e 1040 -c 0 -i 27 -a 0 -x {3.0 2.1 8 ------- null}
- -t 0.66416 -s 1 -d 0 -p tcp -e 1040 -c 0 -i 24 -a 0 -x {1.0 2.0 8 ------- null}
h -t 0.66416 -s 1 -d 0 -p tcp -e 1040 -c 0 -i 24 -a 0 -x {1.0 2.0 -1 ------- null}
- -t 0.6668 -s 0 -d 2 -p tcp -e 1040 -c 0 -i 17 -a 0 -x {1.0 2.0 6 ------- null}
h -t 0.6668 -s 0 -d 2 -p tcp -e 1040 -c 0 -i 17 -a 0 -x {1.0 2.0 -1 ------- null}
r -t 0.66848 -s 0 -d 2 -p tcp -e 1040 -c 0 -i 16 -a 0 -x {1.0 2.0 5 ------- null}
+ -t 0.66848 -s 2 -d 0 -p ack -e 40 -c 0 -i 28 -a 0 -x {2.0 1.0 5 ------- null}
- -t 0.66848 -s 2 -d 0 -p ack -e 40 -c 0 -i 28 -a 0 -x {2.0 1.0 5 ------- null}
h -t 0.66848 -s 2 -d 0 -p ack -e 40 -c 0 -i 28 -a 0 -x {2.0 1.0 -1 ------- null}
r -t 0.67048 -s 2 -d 0 -p ack -e 40 -c 0 -i 25 -a 0 -x {2.1 3.0 4 ------- null}
+ -t 0.67048 -s 0 -d 3 -p ack -e 40 -c 0 -i 25 -a 0 -x {2.1 3.0 4 ------- null}
- -t 0.67048 -s 0 -d 3 -p ack -e 40 -c 0 -i 25 -a 0 -x {2.1 3.0 4 ------- null}
h -t 0.67048 -s 0 -d 3 -p ack -e 40 -c 0 -i 25 -a 0 -x {2.1 3.0 -1 ------- null}
r -t 0.67248 -s 0 -d 1 -p ack -e 40 -c 0 -i 22 -a 0 -x {2.0 1.0 4 ------- null}
+ -t 0.67248 -s 1 -d 0 -p tcp -e 1040 -c 0 -i 29 -a 0 -x {1.0 2.0 9 ------- null}
+ -t 0.67248 -s 1 -d 0 -p tcp -e 1040 -c 0 -i 30 -a 0 -x {1.0 2.0 10 ------- null}
- -t 0.67248 -s 3 -d 0 -p tcp -e 1040 -c 0 -i 27 -a 0 -x {3.0 2.1 8 ------- null}
h -t 0.67248 -s 3 -d 0 -p tcp -e 1040 -c 0 -i 27 -a 0 -x {3.0 2.1 -1 ------- null}
- -t 0.67248 -s 1 -d 0 -p tcp -e 1040 -c 0 -i 29 -a 0 -x {1.0 2.0 9 ------- null}
h -t 0.67248 -s 1 -d 0 -p tcp -e 1040 -c 0 -i 29 -a 0 -x {1.0 2.0 -1 ------- null}
r -t 0.67416 -s 1 -d 0 -p tcp -e 1040 -c 0 -i 23 -a 0 -x {1.0 2.0 7 ------- null}
+ -t 0.67416 -s 0 -d 2 -p tcp -e 1040 -c 0 -i 23 -a 0 -x {1.0 2.0 7 ------- null}
- -t 0.67512 -s 0 -d 2 -p tcp -e 1040 -c 0 -i 19 -a 0 -x {3.0 2.1 6 ------- null}
h -t 0.67512 -s 0 -d 2 -p tcp -e 1040 -c 0 -i 19 -a 0 -x {3.0 2.1 -1 ------- null}
r -t 0.6768 -s 0 -d 2 -p tcp -e 1040 -c 0 -i 18 -a 0 -x {3.0 2.1 5 ------- null}
+ -t 0.6768 -s 2 -d 0 -p ack -e 40 -c 0 -i 31 -a 0 -x {2.1 3.0 5 ------- null}
- -t 0.6768 -s 2 -d 0 -p ack -e 40 -c 0 -i 31 -a 0 -x {2.1 3.0 5 ------- null}
h -t 0.6768 -s 2 -d 0 -p ack -e 40 -c 0 -i 31 -a 0 -x {2.1 3.0 -1 ------- null}
r -t 0.6788 -s 2 -d 0 -p ack -e 40 -c 0 -i 28 -a 0 -x {2.0 1.0 5 ------- null}
+ -t 0.6788 -s 0 -d 1 -p ack -e 40 -c 0 -i 28 -a 0 -x {2.0 1.0 5 ------- null}
- -t 0.6788 -s 0 -d 1 -p ack -e 40 -c 0 -i 28 -a 0 -x {2.0 1.0 5 ------- null}
h -t 0.6788 -s 0 -d 1 -p ack -e 40 -c 0 -i 28 -a 0 -x {2.0 1.0 -1 ------- null}
r -t 0.6808 -s 0 -d 3 -p ack -e 40 -c 0 -i 25 -a 0 -x {2.1 3.0 4 ------- null}
+ -t 0.6808 -s 3 -d 0 -p tcp -e 1040 -c 0 -i 32 -a 0 -x {3.0 2.1 9 ------- null}
+ -t 0.6808 -s 3 -d 0 -p tcp -e 1040 -c 0 -i 33 -a 0 -x {3.0 2.1 10 ------- null}
- -t 0.6808 -s 3 -d 0 -p tcp -e 1040 -c 0 -i 32 -a 0 -x {3.0 2.1 9 ------- null}
h -t 0.6808 -s 3 -d 0 -p tcp -e 1040 -c 0 -i 32 -a 0 -x {3.0 2.1 -1 ------- null}
- -t 0.6808 -s 1 -d 0 -p tcp -e 1040 -c 0 -i 30 -a 0 -x {1.0 2.0 10 ------- null}
h -t 0.6808 -s 1 -d 0 -p tcp -e 1040 -c 0 -i 30 -a 0 -x {1.0 2.0 -1 ------- null}
r -t 0.68248 -s 3 -d 0 -p tcp -e 1040 -c 0 -i 26 -a 0 -x {3.0 2.1 7 ------- null}
+ -t 0.68248 -s 0 -d 2 -p tcp -e 1040 -c 0 -i 26 -a 0 -x {3.0 2.1 7 ------- null}
r -t 0.68248 -s 1 -d 0 -p tcp -e 1040 -c 0 -i 24 -a 0 -x {1.0 2.0 8 ------- null}
+ -t 0.68248 -s 0 -d 2 -p tcp -e 1040 -c 0 -i 24 -a 0 -x {1.0 2.0 8 ------- null}
- -t 0.68344 -s 0 -d 2 -p tcp -e 1040 -c 0 -i 23 -a 0 -x {1.0 2.0 7 ------- null}
h -t 0.68344 -s 0 -d 2 -p tcp -e 1040 -c 0 -i 23 -a 0 -x {1.0 2.0 -1 ------- null}
r -t 0.68512 -s 0 -d 2 -p tcp -e 1040 -c 0 -i 17 -a 0 -x {1.0 2.0 6 ------- null}
+ -t 0.68512 -s 2 -d 0 -p ack -e 40 -c 0 -i 34 -a 0 -x {2.0 1.0 6 ------- null}
- -t 0.68512 -s 2 -d 0 -p ack -e 40 -c 0 -i 34 -a 0 -x {2.0 1.0 6 ------- null}
h -t 0.68512 -s 2 -d 0 -p ack -e 40 -c 0 -i 34 -a 0 -x {2.0 1.0 -1 ------- null}
r -t 0.68712 -s 2 -d 0 -p ack -e 40 -c 0 -i 31 -a 0 -x {2.1 3.0 5 ------- null}
+ -t 0.68712 -s 0 -d 3 -p ack -e 40 -c 0 -i 31 -a 0 -x {2.1 3.0 5 ------- null}
- -t 0.68712 -s 0 -d 3 -p ack -e 40 -c 0 -i 31 -a 0 -x {2.1 3.0 5 ------- null}
h -t 0.68712 -s 0 -d 3 -p ack -e 40 -c 0 -i 31 -a 0 -x {2.1 3.0 -1 ------- null}
r -t 0.68912 -s 0 -d 1 -p ack -e 40 -c 0 -i 28 -a 0 -x {2.0 1.0 5 ------- null}
+ -t 0.68912 -s 1 -d 0 -p tcp -e 1040 -c 0 -i 35 -a 0 -x {1.0 2.0 11 ------- null}
+ -t 0.68912 -s 1 -d 0 -p tcp -e 1040 -c 0 -i 36 -a 0 -x {1.0 2.0 12 ------- null}
- -t 0.68912 -s 3 -d 0 -p tcp -e 1040 -c 0 -i 33 -a 0 -x {3.0 2.1 10 ------- null}
h -t 0.68912 -s 3 -d 0 -p tcp -e 1040 -c 0 -i 33 -a 0 -x {3.0 2.1 -1 ------- null}
- -t 0.68912 -s 1 -d 0 -p tcp -e 1040 -c 0 -i 35 -a 0 -x {1.0 2.0 11 ------- null}
h -t 0.68912 -s 1 -d 0 -p tcp -e 1040 -c 0 -i 35 -a 0 -x {1.0 2.0 -1 ------- null}
r -t 0.6908 -s 3 -d 0 -p tcp -e 1040 -c 0 -i 27 -a 0 -x {3.0 2.1 8 ------- null}
+ -t 0.6908 -s 0 -d 2 -p tcp -e 1040 -c 0 -i 27 -a 0 -x {3.0 2.1 8 ------- null}
r -t 0.6908 -s 1 -d 0 -p tcp -e 1040 -c 0 -i 29 -a 0 -x {1.0 2.0 9 ------- null}
+ -t 0.6908 -s 0 -d 2 -p tcp -e 1040 -c 0 -i 29 -a 0 -x {1.0 2.0 9 ------- null}
- -t 0.69176 -s 0 -d 2 -p tcp -e 1040 -c 0 -i 26 -a 0 -x {3.0 2.1 7 ------- null}
h -t 0.69176 -s 0 -d 2 -p tcp -e 1040 -c 0 -i 26 -a 0 -x {3.0 2.1 -1 ------- null}
r -t 0.69344 -s 0 -d 2 -p tcp -e 1040 -c 0 -i 19 -a 0 -x {3.0 2.1 6 ------- null}
+ -t 0.69344 -s 2 -d 0 -p ack -e 40 -c 0 -i 37 -a 0 -x {2.1 3.0 6 ------- null}
- -t 0.69344 -s 2 -d 0 -p ack -e 40 -c 0 -i 37 -a 0 -x {2.1 3.0 6 ------- null}
h -t 0.69344 -s 2 -d 0 -p ack -e 40 -c 0 -i 37 -a 0 -x {2.1 3.0 -1 ------- null}
r -t 0.69544 -s 2 -d 0 -p ack -e 40 -c 0 -i 34 -a 0 -x {2.0 1.0 6 ------- null}
+ -t 0.69544 -s 0 -d 1 -p ack -e 40 -c 0 -i 34 -a 0 -x {2.0 1.0 6 ------- null}
- -t 0.69544 -s 0 -d 1 -p ack -e 40 -c 0 -i 34 -a 0 -x {2.0 1.0 6 ------- null}
h -t 0.69544 -s 0 -d 1 -p ack -e 40 -c 0 -i 34 -a 0 -x {2.0 1.0 -1 ------- null}
r -t 0.69744 -s 0 -d 3 -p ack -e 40 -c 0 -i 31 -a 0 -x {2.1 3.0 5 ------- null}
+ -t 0.69744 -s 3 -d 0 -p tcp -e 1040 -c 0 -i 38 -a 0 -x {3.0 2.1 11 ------- null}
+ -t 0.69744 -s 3 -d 0 -p tcp -e 1040 -c 0 -i 39 -a 0 -x {3.0 2.1 12 ------- null}
- -t 0.69744 -s 3 -d 0 -p tcp -e 1040 -c 0 -i 38 -a 0 -x {3.0 2.1 11 ------- null}
h -t 0.69744 -s 3 -d 0 -p tcp -e 1040 -c 0 -i 38 -a 0 -x {3.0 2.1 -1 ------- null}
- -t 0.69744 -s 1 -d 0 -p tcp -e 1040 -c 0 -i 36 -a 0 -x {1.0 2.0 12 ------- null}
h -t 0.69744 -s 1 -d 0 -p tcp -e 1040 -c 0 -i 36 -a 0 -x {1.0 2.0 -1 ------- null}
r -t 0.69912 -s 3 -d 0 -p tcp -e 1040 -c 0 -i 32 -a 0 -x {3.0 2.1 9 ------- null}
+ -t 0.69912 -s 0 -d 2 -p tcp -e 1040 -c 0 -i 32 -a 0 -x {3.0 2.1 9 ------- null}
r -t 0.69912 -s 1 -d 0 -p tcp -e 1040 -c 0 -i 30 -a 0 -x {1.0 2.0 10 ------- null}
+ -t 0.69912 -s 0 -d 2 -p tcp -e 1040 -c 0 -i 30 -a 0 -x {1.0 2.0 10 ------- null}
- -t 0.70008 -s 0 -d 2 -p tcp -e 1040 -c 0 -i 24 -a 0 -x {1.0 2.0 8 ------- null}
h -t 0.70008 -s 0 -d 2 -p tcp -e 1040 -c 0 -i 24 -a 0 -x {1.0 2.0 -1 ------- null}
r -t 0.70176 -s 0 -d 2 -p tcp -e 1040 -c 0 -i 23 -a 0 -x {1.0 2.0 7 ------- null}
+ -t 0.70176 -s 2 -d 0 -p ack -e 40 -c 0 -i 40 -a 0 -x {2.0 1.0 7 ------- null}
- -t 0.70176 -s 2 -d 0 -p ack -e 40 -c 0 -i 40 -a 0 -x {2.0 1.0 7 ------- null}
h -t 0.70176 -s 2 -d 0 -p ack -e 40 -c 0 -i 40 -a 0 -x {2.0 1.0 -1 ------- null}
r -t 0.70376 -s 2 -d 0 -p ack -e 40 -c 0 -i 37 -a 0 -x {2.1 3.0 6 ------- null}
+ -t 0.70376 -s 0 -d 3 -p ack -e 40 -c 0 -i 37 -a 0 -x {2.1 3.0 6 ------- null}
- -t 0.70376 -s 0 -d 3 -p ack -e 40 -c 0 -i 37 -a 0 -x {2.1 3.0 6 ------- null}
h -t 0.70376 -s 0 -d 3 -p ack -e 40 -c 0 -i 37 -a 0 -x {2.1 3.0 -1 ------- null}
r -t 0.70576 -s 0 -d 1 -p ack -e 40 -c 0 -i 34 -a 0 -x {2.0 1.0 6 ------- null}
+ -t 0.70576 -s 1 -d 0 -p tcp -e 1040 -c 0 -i 41 -a 0 -x {1.0 2.0 13 ------- null}
+ -t 0.70576 -s 1 -d 0 -p tcp -e 1040 -c 0 -i 42 -a 0 -x {1.0 2.0 14 ------- null}
- -t 0.70576 -s 3 -d 0 -p tcp -e 1040 -c 0 -i 39 -a 0 -x {3.0 2.1 12 ------- null}
h -t 0.70576 -s 3 -d 0 -p tcp -e 1040 -c 0 -i 39 -a 0 -x {3.0 2.1 -1 ------- null}
- -t 0.70576 -s 1 -d 0 -p tcp -e 1040 -c 0 -i 41 -a 0 -x {1.0 2.0 13 ------- null}
h -t 0.70576 -s 1 -d 0 -p tcp -e 1040 -c 0 -i 41 -a 0 -x {1.0 2.0 -1 ------- null}
r -t 0.70744 -s 3 -d 0 -p tcp -e 1040 -c 0 -i 33 -a 0 -x {3.0 2.1 10 ------- null}
+ -t 0.70744 -s 0 -d 2 -p tcp -e 1040 -c 0 -i 33 -a 0 -x {3.0 2.1 10 ------- null}
r -t 0.70744 -s 1 -d 0 -p tcp -e 1040 -c 0 -i 35 -a 0 -x {1.0 2.0 11 ------- null}
+ -t 0.70744 -s 0 -d 2 -p tcp -e 1040 -c 0 -i 35 -a 0 -x {1.0 2.0 11 ------- null}
- -t 0.7084 -s 0 -d 2 -p tcp -e 1040 -c 0 -i 27 -a 0 -x {3.0 2.1 8 ------- null}
h -t 0.7084 -s 0 -d 2 -p tcp -e 1040 -c 0 -i 27 -a 0 -x {3.0 2.1 -1 ------- null}
r -t 0.71008 -s 0 -d 2 -p tcp -e 1040 -c 0 -i 26 -a 0 -x {3.0 2.1 7 ------- null}
+ -t 0.71008 -s 2 -d 0 -p ack -e 40 -c 0 -i 43 -a 0 -x {2.1 3.0 7 ------- null}
- -t 0.71008 -s 2 -d 0 -p ack -e 40 -c 0 -i 43 -a 0 -x {2.1 3.0 7 ------- null}
h -t 0.71008 -s 2 -d 0 -p ack -e 40 -c 0 -i 43 -a 0 -x {2.1 3.0 -1 ------- null}
r -t 0.71208 -s 2 -d 0 -p ack -e 40 -c 0 -i 40 -a 0 -x {2.0 1.0 7 ------- null}
+ -t 0.71208 -s 0 -d 1 -p ack -e 40 -c 0 -i 40 -a 0 -x {2.0 1.0 7 ------- null}
- -t 0.71208 -s 0 -d 1 -p ack -e 40 -c 0 -i 40 -a 0 -x {2.0 1.0 7 ------- null}
h -t 0.71208 -s 0 -d 1 -p ack -e 40 -c 0 -i 40 -a 0 -x {2.0 1.0 -1 ------- null}
r -t 0.71408 -s 0 -d 3 -p ack -e 40 -c 0 -i 37 -a 0 -x {2.1 3.0 6 ------- null}
+ -t 0.71408 -s 3 -d 0 -p tcp -e 1040 -c 0 -i 44 -a 0 -x {3.0 2.1 13 ------- null}
+ -t 0.71408 -s 3 -d 0 -p tcp -e 1040 -c 0 -i 45 -a 0 -x {3.0 2.1 14 ------- null}
- -t 0.71408 -s 3 -d 0 -p tcp -e 1040 -c 0 -i 44 -a 0 -x {3.0 2.1 13 ------- null}
h -t 0.71408 -s 3 -d 0 -p tcp -e 1040 -c 0 -i 44 -a 0 -x {3.0 2.1 -1 ------- null}
- -t 0.71408 -s 1 -d 0 -p tcp -e 1040 -c 0 -i 42 -a 0 -x {1.0 2.0 14 ------- null}
h -t 0.71408 -s 1 -d 0 -p tcp -e 1040 -c 0 -i 42 -a 0 -x {1.0 2.0 -1 ------- null}
r -t 0.71576 -s 3 -d 0 -p tcp -e 1040 -c 0 -i 38 -a 0 -x {3.0 2.1 11 ------- null}
+ -t 0.71576 -s 0 -d 2 -p tcp -e 1040 -c 0 -i 38 -a 0 -x {3.0 2.1 11 ------- null}
r -t 0.71576 -s 1 -d 0 -p tcp -e 1040 -c 0 -i 36 -a 0 -x {1.0 2.0 12 ------- null}
+ -t 0.71576 -s 0 -d 2 -p tcp -e 1040 -c 0 -i 36 -a 0 -x {1.0 2.0 12 ------- null}
- -t 0.71672 -s 0 -d 2 -p tcp -e 1040 -c 0 -i 29 -a 0 -x {1.0 2.0 9 ------- null}
h -t 0.71672 -s 0 -d 2 -p tcp -e 1040 -c 0 -i 29 -a 0 -x {1.0 2.0 -1 ------- null}
r -t 0.7184 -s 0 -d 2 -p tcp -e 1040 -c 0 -i 24 -a 0 -x {1.0 2.0 8 ------- null}
+ -t 0.7184 -s 2 -d 0 -p ack -e 40 -c 0 -i 46 -a 0 -x {2.0 1.0 8 ------- null}
- -t 0.7184 -s 2 -d 0 -p ack -e 40 -c 0 -i 46 -a 0 -x {2.0 1.0 8 ------- null}
h -t 0.7184 -s 2 -d 0 -p ack -e 40 -c 0 -i 46 -a 0 -x {2.0 1.0 -1 ------- null}
r -t 0.7204 -s 2 -d 0 -p ack -e 40 -c 0 -i 43 -a 0 -x {2.1 3.0 7 ------- null}
+ -t 0.7204 -s 0 -d 3 -p ack -e 40 -c 0 -i 43 -a 0 -x {2.1 3.0 7 ------- null}
- -t 0.7204 -s 0 -d 3 -p ack -e 40 -c 0 -i 43 -a 0 -x {2.1 3.0 7 ------- null}
h -t 0.7204 -s 0 -d 3 -p ack -e 40 -c 0 -i 43 -a 0 -x {2.1 3.0 -1 ------- null}
r -t 0.7224 -s 0 -d 1 -p ack -e 40 -c 0 -i 40 -a 0 -x {2.0 1.0 7 ------- null}
+ -t 0.7224 -s 1 -d 0 -p tcp -e 1040 -c 0 -i 47 -a 0 -x {1.0 2.0 15 ------- null}
+ -t 0.7224 -s 1 -d 0 -p tcp -e 1040 -c 0 -i 48 -a 0 -x {1.0 2.0 16 ------- null}
- -t 0.7224 -s 3 -d 0 -p tcp -e 1040 -c 0 -i 45 -a 0 -x {3.0 2.1 14 ------- null}
h -t 0.7224 -s 3 -d 0 -p tcp -e 1040 -c 0 -i 45 -a 0 -x {3.0 2.1 -1 ------- null}
- -t 0.7224 -s 1 -d 0 -p tcp -e 1040 -c 0 -i 47 -a 0 -x {1.0 2.0 15 ------- null}
h -t 0.7224 -s 1 -d 0 -p tcp -e 1040 -c 0 -i 47 -a 0 -x {1.0 2.0 -1 ------- null}
r -t 0.72408 -s 3 -d 0 -p tcp -e 1040 -c 0 -i 39 -a 0 -x {3.0 2.1 12 ------- null}
+ -t 0.72408 -s 0 -d 2 -p tcp -e 1040 -c 0 -i 39 -a 0 -x {3.0 2.1 12 ------- null}
r -t 0.72408 -s 1 -d 0 -p tcp -e 1040 -c 0 -i 41 -a 0 -x {1.0 2.0 13 ------- null}
+ -t 0.72408 -s 0 -d 2 -p tcp -e 1040 -c 0 -i 41 -a 0 -x {1.0 2.0 13 ------- null}
- -t 0.72504 -s 0 -d 2 -p tcp -e 1040 -c 0 -i 32 -a 0 -x {3.0 2.1 9 ------- null}
h -t 0.72504 -s 0 -d 2 -p tcp -e 1040 -c 0 -i 32 -a 0 -x {3.0 2.1 -1 ------- null}
r -t 0.72672 -s 0 -d 2 -p tcp -e 1040 -c 0 -i 27 -a 0 -x {3.0 2.1 8 ------- null}
+ -t 0.72672 -s 2 -d 0 -p ack -e 40 -c 0 -i 49 -a 0 -x {2.1 3.0 8 ------- null}
- -t 0.72672 -s 2 -d 0 -p ack -e 40 -c 0 -i 49 -a 0 -x {2.1 3.0 8 ------- null}
h -t 0.72672 -s 2 -d 0 -p ack -e 40 -c 0 -i 49 -a 0 -x {2.1 3.0 -1 ------- null}
r -t 0.72872 -s 2 -d 0 -p ack -e 40 -c 0 -i 46 -a 0 -x {2.0 1.0 8 ------- null}
+ -t 0.72872 -s 0 -d 1 -p ack -e 40 -c 0 -i 46 -a 0 -x {2.0 1.0 8 ------- null}
- -t 0.72872 -s 0 -d 1 -p ack -e 40 -c 0 -i 46 -a 0 -x {2.0 1.0 8 ------- null}
h -t 0.72872 -s 0 -d 1 -p ack -e 40 -c 0 -i 46 -a 0 -x {2.0 1.0 -1 ------- null}
r -t 0.73072 -s 0 -d 3 -p ack -e 40 -c 0 -i 43 -a 0 -x {2.1 3.0 7 ------- null}
+ -t 0.73072 -s 3 -d 0 -p tcp -e 1040 -c 0 -i 50 -a 0 -x {3.0 2.1 15 ------- null}
+ -t 0.73072 -s 3 -d 0 -p tcp -e 1040 -c 0 -i 51 -a 0 -x {3.0 2.1 16 ------- null}
- -t 0.73072 -s 3 -d 0 -p tcp -e 1040 -c 0 -i 50 -a 0 -x {3.0 2.1 15 ------- null}
h -t 0.73072 -s 3 -d 0 -p tcp -e 1040 -c 0 -i 50 -a 0 -x {3.0 2.1 -1 ------- null}
- -t 0.73072 -s 1 -d 0 -p tcp -e 1040 -c 0 -i 48 -a 0 -x {1.0 2.0 16 ------- null}
h -t 0.73072 -s 1 -d 0 -p tcp -e 1040 -c 0 -i 48 -a 0 -x {1.0 2.0 -1 ------- null}
r -t 0.7324 -s 3 -d 0 -p tcp -e 1040 -c 0 -i 44 -a 0 -x {3.0 2.1 13 ------- null}
+ -t 0.7324 -s 0 -d 2 -p tcp -e 1040 -c 0 -i 44 -a 0 -x {3.0 2.1 13 ------- null}
r -t 0.7324 -s 1 -d 0 -p tcp -e 1040 -c 0 -i 42 -a 0 -x {1.0 2.0 14 ------- null}
+ -t 0.7324 -s 0 -d 2 -p tcp -e 1040 -c 0 -i 42 -a 0 -x {1.0 2.0 14 ------- null}
- -t 0.73336 -s 0 -d 2 -p tcp -e 1040 -c 0 -i 30 -a 0 -x {1.0 2.0 10 ------- null}
h -t 0.73336 -s 0 -d 2 -p tcp -e 1040 -c 0 -i 30 -a 0 -x {1.0 2.0 -1 ------- null}
r -t 0.73504 -s 0 -d 2 -p tcp -e 1040 -c 0 -i 29 -a 0 -x {1.0 2.0 9 ------- null}
+ -t 0.73504 -s 2 -d 0 -p ack -e 40 -c 0 -i 52 -a 0 -x {2.0 1.0 9 ------- null}
- -t 0.73504 -s 2 -d 0 -p ack -e 40 -c 0 -i 52 -a 0 -x {2.0 1.0 9 ------- null}
h -t 0.73504 -s 2 -d 0 -p ack -e 40 -c 0 -i 52 -a 0 -x {2.0 1.0 -1 ------- null}
r -t 0.73704 -s 2 -d 0 -p ack -e 40 -c 0 -i 49 -a 0 -x {2.1 3.0 8 ------- null}
+ -t 0.73704 -s 0 -d 3 -p ack -e 40 -c 0 -i 49 -a 0 -x {2.1 3.0 8 ------- null}
- -t 0.73704 -s 0 -d 3 -p ack -e 40 -c 0 -i 49 -a 0 -x {2.1 3.0 8 ------- null}
h -t 0.73704 -s 0 -d 3 -p ack -e 40 -c 0 -i 49 -a 0 -x {2.1 3.0 -1 ------- null}
r -t 0.73904 -s 0 -d 1 -p ack -e 40 -c 0 -i 46 -a 0 -x {2.0 1.0 8 ------- null}